 DBCSR| CPU Multiplication driver                                           XSMM
 DBCSR| Multrec recursion limit                                              512
 DBCSR| Multiplication stack size                                           1000
 DBCSR| Maximum elements for images                                    UNLIMITED
 DBCSR| Multiplicative factor virtual images                                   1
 DBCSR| Use multiplication densification                                       T
 DBCSR| Multiplication size stacks                                             3
 DBCSR| Number of 3D layers                                               SINGLE
 DBCSR| Use MPI memory allocation                                              T
 DBCSR| Use RMA algorithm                                                      F
 DBCSR| Use Communication thread                                               T
 DBCSR| Communication thread load                                             87


  **** **** ******  **  PROGRAM STARTED AT               2022-12-12 19:18:00.203
 ***** ** ***  *** **   PROGRAM STARTED ON                         node-c12j-003
 **    ****   ******    PROGRAM STARTED BY                               mmm0666
 ***** **    ** ** **   PROGRAM PROCESS ID                                 60399
  **** **  *******  **  PROGRAM STARTED IN /lustre/home/mmm0666/cp2k_ksprint/he_
                                           grid/He1

 CP2K| version string:                                          CP2K version 7.1
 CP2K| source code revision number:                                  git:e635599
 CP2K| cp2kflags: libint fftw3 libxc elpa parallel mpi3 scalapack quip xsmm spgl
 CP2K|            ib
 CP2K| is freely available from                            https://www.cp2k.org/
 CP2K| Program compiled at                          Wed  8 Jan 12:34:35 GMT 2020
 CP2K| Program compiled on                                               login01
 CP2K| Program compiled for                                                local
 CP2K| Data directory path     /shared/ucl/apps/cp2k/7.1/gnu-4.9.2/cp2k-7.1/data
 CP2K| Input file name                                                 input.inp

 GLOBAL| Force Environment number                                              1
 GLOBAL| Basis set file name            /shared/ucl/apps/cp2k/7.1/gnu-4.9.2/cp2k
 GLOBAL| Potential file name            /shared/ucl/apps/cp2k/7.1/gnu-4.9.2/cp2k
 GLOBAL| MM Potential file name                                     MM_POTENTIAL
 GLOBAL| Coordinate file name                                            mol.xyz
 GLOBAL| Method name                                                        CP2K
 GLOBAL| Project name                                                       Gold
 GLOBAL| Preferred FFT library                                             FFTW3
 GLOBAL| Preferred diagonalization lib.                                     ELPA
 GLOBAL| Run type                                                         ENERGY
 GLOBAL| All-to-all communication in single precision                          F
 GLOBAL| FFTs using library dependent lengths                                  F
 GLOBAL| Global print level                                                  LOW
 GLOBAL| MPI I/O enabled                                                       T
 GLOBAL| Total number of message passing processes                            40
 GLOBAL| Number of threads for this process                                    1
 GLOBAL| This output is from process                                           0
 GLOBAL| CPU model name                 Intel(R) Xeon(R) Gold 6248 CPU @ 2.50GHz
 GLOBAL| CPUID                                                              1003

 MEMORY| system memory details [Kb]
 MEMORY|                        rank 0           min           max       average
 MEMORY| MemTotal            197730152     197730152     197730152     197730152
 MEMORY| MemFree             177765916     177765916     177765916     177765916
 MEMORY| Buffers                     0             0             0             0
 MEMORY| Cached               12119504      12119504      12119504      12119504
 MEMORY| Slab                  1090648       1090648       1090648       1090648
 MEMORY| SReclaimable           227728        227728        227728        227728
 MEMORY| MemLikelyFree       190113148     190113148     190113148     190113148


 GENERATE|  Preliminary Number of Bonds generated:                             0
 GENERATE|  Achieved consistency in connectivity generation.

 *******************************************************************************
 *******************************************************************************
 **                                                                           **
 **     #####                         ##              ##                      **
 **    ##   ##            ##          ##              ##                      **
 **   ##     ##                       ##            ######                    **
 **   ##     ##  ##   ##  ##   #####  ##  ##   ####   ##    #####    #####    **
 **   ##     ##  ##   ##  ##  ##      ## ##   ##      ##   ##   ##  ##   ##   **
 **   ##  ## ##  ##   ##  ##  ##      ####     ###    ##   ######   ######    **
 **    ##  ###   ##   ##  ##  ##      ## ##      ##   ##   ##       ##        **
 **     #######   #####   ##   #####  ##  ##  ####    ##    #####   ##        **
 **           ##                                                    ##        **
 **                                                                           **
 **                                                ... make the atoms dance   **
 **                                                                           **
 **            Copyright (C) by CP2K developers group (2000 - 2019)           **
 **                                                                           **
 *******************************************************************************

 *** WARNING in qs_environment.F:1310 :: More added MOs requested than ***
 *** available. The full set of unoccupied MOs will be used.           ***



 TOTAL NUMBERS AND MAXIMUM NUMBERS

  Total number of            - Atomic kinds:                                   2
                             - Atoms:                                         51
                             - Shell sets:                                    51
                             - Shells:                                       151
                             - Primitive Cartesian functions:                252
                             - Cartesian basis functions:                    501
                             - Spherical basis functions:                    451

  Maximum angular momentum of- Orbital basis functions:                        2
                             - Local part of the GTH pseudopotential:          2
                             - Non-local part of the GTH pseudopotential:      4


 SCF PARAMETERS         Density guess:                                    ATOMIC
                        --------------------------------------------------------
                        max_scf:                                             100
                        max_scf_history:                                       0
                        max_diis:                                              4
                        --------------------------------------------------------
                        eps_scf:                                        1.00E-08
                        eps_scf_history:                                0.00E+00
                        eps_diis:                                       1.00E-01
                        eps_eigval:                                     1.00E-05
                        --------------------------------------------------------
                        level_shift [a.u.]:                                 0.00
                        added MOs                                       175    0
                        --------------------------------------------------------
                        Mixing method:                              PULAY_MIXING
                                                charge density mixing in g-space
                        --------------------------------------------------------
                        Smear method:                                FERMI_DIRAC
                        Electronic temperature [K]:                       1000.0
                        Electronic temperature [a.u.]:                  3.17E-03
                        Accuracy threshold:                             1.00E-10
                        --------------------------------------------------------
                        Outer loop SCF in use 
                        No variables optimised in outer loop
                        eps_scf                                         1.00E-06
                        max_scf                                              100
                        Steepest descent optimization
                        step_size                                       5.00E-01

 Number of electrons:                                                        552
 Number of occupied orbitals:                                                276
 Number of molecular orbitals:                                               451

 Number of orbital functions:                                                451
 Number of independent orbital functions:                                    451

 Extrapolation method: initial_guess


 SCF WAVEFUNCTION OPTIMIZATION

  Step     Update method      Time    Convergence         Total energy    Change
  ------------------------------------------------------------------------------
     1 NoMix/Diag. 0.20E+00    1.3     0.31011223     -1662.5297903951 -1.66E+03
     2 Pulay/Diag. 0.20E+00    1.8     0.02783172     -1702.5728453978 -4.00E+01
     3 Pulay/Diag. 0.20E+00    1.8     0.05019655     -1677.8159391094  2.48E+01
     4 Pulay/Diag. 0.20E+00    1.8     0.01525219     -1664.6271588044  1.32E+01
     5 Pulay/Diag. 0.20E+00    1.8     0.00314675     -1663.3200794858  1.31E+00
     6 Pulay/Diag. 0.20E+00    1.8     0.00430287     -1663.2198091708  1.00E-01
     7 Pulay/Diag. 0.20E+00    1.8     0.00238482     -1663.2518573439 -3.20E-02
     8 Pulay/Diag. 0.20E+00    1.8     0.00059247     -1663.2745409010 -2.27E-02
     9 Pulay/Diag. 0.20E+00    1.8     0.00070271     -1663.2702917977  4.25E-03
    10 Pulay/Diag. 0.20E+00    1.8     0.00054636     -1663.2328323060  3.75E-02
    11 Pulay/Diag. 0.20E+00    1.7     0.00025334     -1663.2223685129  1.05E-02
    12 Pulay/Diag. 0.20E+00    1.8     0.00022974     -1663.2097478537  1.26E-02
    13 Pulay/Diag. 0.20E+00    1.8     0.00024477     -1663.1943140351  1.54E-02
    14 Pulay/Diag. 0.20E+00    1.8     0.00011428     -1663.1883796696  5.93E-03
    15 Pulay/Diag. 0.20E+00    1.8     0.00003908     -1663.1867599594  1.62E-03
    16 Pulay/Diag. 0.20E+00    1.8     0.00001874     -1663.1876978611 -9.38E-04
    17 Pulay/Diag. 0.20E+00    1.8     0.00001117     -1663.1872533784  4.44E-04
    18 Pulay/Diag. 0.20E+00    1.8     0.00000730     -1663.1873164907 -6.31E-05
    19 Pulay/Diag. 0.20E+00    1.8     0.00000580     -1663.1872441942  7.23E-05
    20 Pulay/Diag. 0.20E+00    1.8     0.00000359     -1663.1872000754  4.41E-05
    21 Pulay/Diag. 0.20E+00    1.8     0.00000154     -1663.1872112344 -1.12E-05
    22 Pulay/Diag. 0.20E+00    1.8     0.00000075     -1663.1872209000 -9.67E-06
    23 Pulay/Diag. 0.20E+00    1.8     0.00000072     -1663.1871886592  3.22E-05
    24 Pulay/Diag. 0.20E+00    1.8     0.00000058     -1663.1871789988  9.66E-06
    25 Pulay/Diag. 0.20E+00    1.9     0.00000062     -1663.1871850773 -6.08E-06
    26 Pulay/Diag. 0.20E+00    1.8     0.00000052     -1663.1871819732  3.10E-06
    27 Pulay/Diag. 0.20E+00    1.8     0.00000037     -1663.1871745533  7.42E-06
    28 Pulay/Diag. 0.20E+00    1.8     0.00000028     -1663.1871658013  8.75E-06
    29 Pulay/Diag. 0.20E+00    1.8     0.00000036     -1663.1871618757  3.93E-06
    30 Pulay/Diag. 0.20E+00    1.8     0.00000023     -1663.1871572437  4.63E-06
    31 Pulay/Diag. 0.20E+00    1.8     0.00000010     -1663.1871549047  2.34E-06
    32 Pulay/Diag. 0.20E+00    1.8     0.00000008     -1663.1871526876  2.22E-06
    33 Pulay/Diag. 0.20E+00    1.8     0.00000007     -1663.1871516149  1.07E-06
    34 Pulay/Diag. 0.20E+00    1.8     0.00000003     -1663.1871532576 -1.64E-06
    35 Pulay/Diag. 0.20E+00    1.8     0.00000002     -1663.1871518485  1.41E-06
    36 Pulay/Diag. 0.20E+00    1.8     0.00000003     -1663.1871510261  8.22E-07
    37 Pulay/Diag. 0.20E+00    1.8     0.00000003     -1663.1871504672  5.59E-07
    38 Pulay/Diag. 0.20E+00    1.8     0.00000001     -1663.1871501579  3.09E-07
    39 Pulay/Diag. 0.20E+00    2.2     9.6778E-09     -1663.1871501250  3.29E-08

  *** SCF run converged in    39 steps ***


  Electronic density on regular grids:       -551.9999999995        0.0000000005
  Core density on regular grids:              552.0000000000       -0.0000000000
  Hard and soft densities (Lebedev):           -0.0000000000       -0.0000000000
  Total Rho_soft + Rho1_hard - Rho1_soft     -551.9999999995
  Total charge density (r-space):               0.0000000005
  Total Rho_soft + Rho0_soft (g-space):         0.0000000005

  Overlap energy of the core charge distribution:               0.00000004542016
  Self energy of the core charge distribution:              -2898.30882843202517
  Core Hamiltonian energy:                                    924.08867081089363
  Hartree energy:                                             571.48258838520997
  Exchange-correlation energy:                               -260.42630080504637

  GAPW| Exc from hard and soft atomic rho1:                     0.00000000000000
  GAPW| local Eh = 1 center integrals:                          0.00000000000000
  Electronic entropic energy:                                  -0.02328012936438
  Fermi energy:                                                -0.06283498542626

  Total energy:                                             -1663.18715012503458

  outer SCF iter =    1 RMS gradient =   0.97E-08 energy =      -1663.1871501250
  outer SCF loop converged in   1 iterations or   39 steps


 ENERGY| Total FORCE_EVAL ( QS ) energy (a.u.):            -1663.187149893130481


 -------------------------------------------------------------------------------
 -                                                                             -
 -                                DBCSR STATISTICS                             -
 -                                                                             -
 -------------------------------------------------------------------------------
 COUNTER                                    TOTAL       BLAS       SMM       ACC
 flops     1 x     1 x     3                  234       0.0%    100.0%      0.0%
 flops     1 x     1 x    32                34944       0.0%    100.0%      0.0%
 flops     1 x     9 x     3                52650       0.0%    100.0%      0.0%
 flops     9 x     1 x     3                52650       0.0%    100.0%      0.0%
 flops     1 x     9 x    32              7862400       0.0%    100.0%      0.0%
 flops     9 x     1 x    32              7862400       0.0%    100.0%      0.0%
 flops     9 x     9 x     3             24166350       0.0%    100.0%      0.0%
 flops     9 x     9 x    32           3608841600       0.0%    100.0%      0.0%
 flops inhomo. stacks                           0       0.0%      0.0%      0.0%
 flops total                         3.648873E+09       0.0%    100.0%      0.0%
 flops max/rank                    140.254686E+06       0.0%    100.0%      0.0%
 matmuls inhomo. stacks                         0       0.0%      0.0%      0.0%
 matmuls total                             775710       0.0%    100.0%      0.0%
 number of processed stacks                 31590       0.0%    100.0%      0.0%
 average stack size                                     0.0      24.6       0.0
 marketing flops                     4.498012E+09
 -------------------------------------------------------------------------------
 # multiplications                             39
 max memory usage/rank             302.219264E+06
 # max total images/rank                        5
 # max 3D layers                                1
 # MPI messages exchanged                   51480
 MPI messages size (bytes):
  total size                       761.533312E+06
  min size                           0.000000E+00
  max size                          32.512000E+03
  average size                      14.792800E+03
 MPI breakdown and total messages size (bytes):
             size <=      128               12870                        0
       128 < size <=     8192                2574                  5065632
      8192 < size <=    32768               36036                756467712
     32768 < size <=   131072                   0                        0
    131072 < size <=  4194304                   0                        0
   4194304 < size <= 16777216                   0                        0
  16777216 < size                               0                        0
 -------------------------------------------------------------------------------

 *** WARNING in dbcsr_mm.F:295 :: Using a non-square number of MPI ranks ***
 *** might lead to poor performance. Used ranks: 40 Suggested: 36 81     ***

 -------------------------------------------------------------------------------
 -                                                                             -
 -                      DBCSR MESSAGE PASSING PERFORMANCE                      -
 -                                                                             -
 -------------------------------------------------------------------------------
 ROUTINE             CALLS      AVE VOLUME [Bytes]
 MP_Group               41
 MP_Bcast                9                     12.
 MP_Allreduce          311                     10.
 MP_Alltoall          1104                  26204.
 MP_Wait              2808
 MP_ISend             3042                   8465.
 MP_IRecv             2964                   7470.
 MP_Memory            8190
 -------------------------------------------------------------------------------

 MEMORY| Estimated peak process memory [MiB]                                 366

 -------------------------------------------------------------------------------
 -                                                                             -
 -                         MESSAGE PASSING PERFORMANCE                         -
 -                                                                             -
 -------------------------------------------------------------------------------

 ROUTINE             CALLS      AVE VOLUME [Bytes]
 MP_Group                6
 MP_Bcast              148                2408746.
 MP_Allreduce          742                  88845.
 MP_Sync                46
 MP_Alltoall           639                6253291.
 MP_SendRecv           640                 373248.
 MP_ISendRecv        21879                 706556.
 MP_Wait             21879
 MP_Recv                28                 115456.
 -------------------------------------------------------------------------------


 -------------------------------------------------------------------------------
 -                                                                             -
 -                           R E F E R E N C E S                               -
 -                                                                             -
 -------------------------------------------------------------------------------
 
 CP2K version 7.1, the CP2K developers group (2019).
 CP2K is freely available from https://www.cp2k.org/ .

 Schuett, Ole; Messmer, Peter; Hutter, Juerg; VandeVondele, Joost. 
 Electronic Structure Calculations on Graphics Processing Units, John
 Wiley & Sons, Ltd, 173-190 (2016). 
 GPU-Accelerated Sparse Matrix-Matrix Multiplication for
 Linear Scaling Density Functional Theory.
 https://dx.doi.org/10.1002/9781118670712.ch8

 Borstnik, U; VandeVondele, J; Weber, V; Hutter, J. 
 PARALLEL COMPUTING, 40 (5-6), 47-58 (2014). 
 Sparse matrix multiplication: The distributed block-compressed sparse
 row library.
 https://dx.doi.org/10.1016/j.parco.2014.03.012

 Hutter, J; Iannuzzi, M; Schiffmann, F; VandeVondele, J. 
 WIREs Comput Mol Sci., 4 (1), 15-25 (2014). 
 CP2K: atomistic simulations of condensed matter systems.
 https://dx.doi.org/10.1002/wcms.1159

 Marek, A; Blum, V; Johanni, R; Havu, V; Lang, B; Auckenthaler, T;
 Heinecke, A; Bungartz, H; Lederer, H. 
 Journal of Physics: Condensed Matter, 26 (21), (2014). 
 The ELPA library: scalable parallel eigenvalue solutions for
 electronic structure
 theory and computational science.
 https://dx.doi.org/10.1088/0953-8984/26/21/213201

 VandeVondele, J; Hutter, J. 
 JOURNAL OF CHEMICAL PHYSICS, 127 (11), 114105 (2007). 
 Gaussian basis sets for accurate calculations on molecular systems in
 gas and condensed phases.
 https://dx.doi.org/10.1063/1.2770708

 Krack, M. 
 THEORETICAL CHEMISTRY ACCOUNTS, 114 (1-3), 145-152 (2005). 
 Pseudopotentials for H to Kr optimized for gradient-corrected
 exchange-correlation functionals.
 https://dx.doi.org/10.1007/s00214-005-0655-y

 Frigo, M; Johnson, SG. 
 PROCEEDINGS OF THE IEEE, 93 (2), 216-231 (2005). 
 The design and implementation of FFTW3.
 https://dx.doi.org/10.1109/JPROC.2004.840301

 Lippert, G; Hutter, J; Parrinello, M. 
 THEORETICAL CHEMISTRY ACCOUNTS, 103 (2), 124-140 (1999). 
 The Gaussian and augmented-plane-wave density functional method for ab
 initio molecular dynamics simulations.
 https://dx.doi.org/10.1007/s002140050523

 Krack, M; Parrinello, M. 
 PHYSICAL CHEMISTRY CHEMICAL PHYSICS, 2 (10), 2105-2112 (2000). 
 All-electron ab-initio molecular dynamics.
 https://dx.doi.org/10.1039/b001167n

 Hartwigsen, C; Goedecker, S; Hutter, J. 
 PHYSICAL REVIEW B, 58 (7), 3641-3662 (1998). 
 Relativistic separable dual-space Gaussian pseudopotentials from H to Rn.
 https://dx.doi.org/10.1103/PhysRevB.58.3641

 Perdew, JP; Burke, K; Ernzerhof, M. 
 PHYSICAL REVIEW LETTERS, 77 (18), 3865-3868 (1996). 
 Generalized gradient approximation made simple.
 https://dx.doi.org/10.1103/PhysRevLett.77.3865

 Goedecker, S; Teter, M; Hutter, J. 
 PHYSICAL REVIEW B, 54 (3), 1703-1710 (1996). 
 Separable dual-space Gaussian pseudopotentials.
 https://dx.doi.org/10.1103/PhysRevB.54.1703


 -------------------------------------------------------------------------------
 -                                                                             -
 -                                T I M I N G                                  -
 -                                                                             -
 -------------------------------------------------------------------------------
 SUBROUTINE                       CALLS  ASD         SELF TIME        TOTAL TIME
                                MAXIMUM       AVERAGE  MAXIMUM  AVERAGE  MAXIMUM
 CP2K                                 1  1.0    0.027    0.041   73.102   73.103
 qs_energies                          1  2.0    0.003    0.003   71.935   71.936
 scf_env_do_scf                       1  3.0    0.000    0.000   70.016   70.020
 scf_env_do_scf_inner_loop           39  4.0    0.003    0.005   70.016   70.019
 qs_ks_update_qs_env                 40  5.0    0.000    0.000   41.199   41.668
 rebuild_ks_matrix                   40  6.0    0.000    0.000   41.192   41.660
 qs_ks_build_kohn_sham_matrix        40  7.0    0.007    0.010   41.192   41.660
 rs_pw_transfer                     561  9.5    0.005    0.006   29.238   33.131
 mp_waitall_1                     24687 11.5   14.570   19.235   14.570   19.235
 qs_rho_update_rho                   40  5.0    0.000    0.000   18.725   18.728
 calculate_rho_elec                  40  6.0    5.484    8.758   18.720   18.722
 sum_up_and_integrate                40  8.0    0.038    0.042   14.759   18.252
 integrate_v_rspace                  40  9.0    5.710    9.203   14.720   18.211
 rs_pw_transfer_PW2RS_250            80 11.0    7.483    7.765   14.178   16.277
 rs_pw_transfer_RS2PW_250            81 10.0    4.923    4.990   12.836   14.749
 density_rs2pw                       40  7.0    0.002    0.003   11.581   13.432
 integrate_vhg0_rspace               40  8.0    0.020    0.036    8.990   11.085
 potential_pw2rs                     40 10.0    0.005    0.006    9.004    9.007
 pw_transfer                        759  9.2    0.044    0.049    8.579    8.777
 fft_wrap_pw1pw2                    639 10.1    0.005    0.005    8.318    8.510
 prepare_gapw_den                    40  8.0    0.000    0.000    8.057    8.080
 put_rho0_on_grid                    40  9.0    0.060    0.068    8.055    8.077
 fft_wrap_pw1pw2_250                239 10.5    0.713    0.734    7.800    8.017
 qs_scf_loop_print                   39  5.0    0.206    6.870    7.335    8.002
 qs_vxc_create                       40  8.0    0.000    0.001    7.094    7.094
 xc_vxc_pw_create                    40  9.0    0.142    0.159    7.093    7.093
 fft3d_ps                           639 12.1    4.086    4.419    6.213    6.437
 mp_sync                             46  6.1    6.062    6.228    6.062    6.228
 xc_rho_set_and_dset_create          40 10.0    0.088    0.092    5.337    5.854
 xc_functional_eval                  40 11.0    0.000    0.000    4.039    4.526
 pbe_lda_eval                        40 12.0    4.038    4.526    4.038    4.526
 rs_grid_zero                       321  7.6    3.847    3.971    3.847    3.971
 pw_nn_compose_r                    320 10.5    1.752    1.839    2.518    2.937
 gspace_mixing                       38  5.0    0.056    0.063    2.689    2.690
 mp_isendrecv_dv                  21879 11.5    1.309    2.403    1.309    2.403
 mp_sum_dm                           40  6.0    1.244    1.936    1.244    1.936
 -------------------------------------------------------------------------------

 The number of warnings for this run is : 2
 
 -------------------------------------------------------------------------------
  **** **** ******  **  PROGRAM ENDED AT                 2022-12-12 19:19:13.828
 ***** ** ***  *** **   PROGRAM RAN ON                             node-c12j-003
 **    ****   ******    PROGRAM RAN BY                                   mmm0666
 ***** **    ** ** **   PROGRAM PROCESS ID                                 60399
  **** **  *******  **  PROGRAM STOPPED IN /lustre/home/mmm0666/cp2k_ksprint/he_
                                           grid/He1
