 DBCSR| CPU Multiplication driver                                           XSMM
 DBCSR| Multrec recursion limit                                              512
 DBCSR| Multiplication stack size                                           1000
 DBCSR| Maximum elements for images                                    UNLIMITED
 DBCSR| Multiplicative factor virtual images                                   1
 DBCSR| Use multiplication densification                                       T
 DBCSR| Multiplication size stacks                                             3
 DBCSR| Number of 3D layers                                               SINGLE
 DBCSR| Use MPI memory allocation                                              T
 DBCSR| Use RMA algorithm                                                      F
 DBCSR| Use Communication thread                                               T
 DBCSR| Communication thread load                                             87


  **** **** ******  **  PROGRAM STARTED AT               2022-12-13 00:55:55.129
 ***** ** ***  *** **   PROGRAM STARTED ON                         node-c12o-001
 **    ****   ******    PROGRAM STARTED BY                               mmm0666
 ***** **    ** ** **   PROGRAM PROCESS ID                                 47708
  **** **  *******  **  PROGRAM STARTED IN /lustre/home/mmm0666/cp2k_ksprint/he_
                                           grid/He21

 CP2K| version string:                                          CP2K version 7.1
 CP2K| source code revision number:                                  git:e635599
 CP2K| cp2kflags: libint fftw3 libxc elpa parallel mpi3 scalapack quip xsmm spgl
 CP2K|            ib
 CP2K| is freely available from                            https://www.cp2k.org/
 CP2K| Program compiled at                          Wed  8 Jan 12:34:35 GMT 2020
 CP2K| Program compiled on                                               login01
 CP2K| Program compiled for                                                local
 CP2K| Data directory path     /shared/ucl/apps/cp2k/7.1/gnu-4.9.2/cp2k-7.1/data
 CP2K| Input file name                                                 input.inp

 GLOBAL| Force Environment number                                              1
 GLOBAL| Basis set file name            /shared/ucl/apps/cp2k/7.1/gnu-4.9.2/cp2k
 GLOBAL| Potential file name            /shared/ucl/apps/cp2k/7.1/gnu-4.9.2/cp2k
 GLOBAL| MM Potential file name                                     MM_POTENTIAL
 GLOBAL| Coordinate file name                                            mol.xyz
 GLOBAL| Method name                                                        CP2K
 GLOBAL| Project name                                                       Gold
 GLOBAL| Preferred FFT library                                             FFTW3
 GLOBAL| Preferred diagonalization lib.                                     ELPA
 GLOBAL| Run type                                                         ENERGY
 GLOBAL| All-to-all communication in single precision                          F
 GLOBAL| FFTs using library dependent lengths                                  F
 GLOBAL| Global print level                                                  LOW
 GLOBAL| MPI I/O enabled                                                       T
 GLOBAL| Total number of message passing processes                            40
 GLOBAL| Number of threads for this process                                    1
 GLOBAL| This output is from process                                           0
 GLOBAL| CPU model name                 Intel(R) Xeon(R) Gold 6248 CPU @ 2.50GHz
 GLOBAL| CPUID                                                              1003

 MEMORY| system memory details [Kb]
 MEMORY|                        rank 0           min           max       average
 MEMORY| MemTotal            197730148     197730148     197730148     197730148
 MEMORY| MemFree             178166576     178166576     178166576     178166576
 MEMORY| Buffers                     0             0             0             0
 MEMORY| Cached               11978348      11978348      11978348      11978348
 MEMORY| Slab                   834448        834448        834448        834448
 MEMORY| SReclaimable           218376        218376        218376        218376
 MEMORY| MemLikelyFree       190363300     190363300     190363300     190363300


 GENERATE|  Preliminary Number of Bonds generated:                             0
 GENERATE|  Achieved consistency in connectivity generation.

 *******************************************************************************
 *******************************************************************************
 **                                                                           **
 **     #####                         ##              ##                      **
 **    ##   ##            ##          ##              ##                      **
 **   ##     ##                       ##            ######                    **
 **   ##     ##  ##   ##  ##   #####  ##  ##   ####   ##    #####    #####    **
 **   ##     ##  ##   ##  ##  ##      ## ##   ##      ##   ##   ##  ##   ##   **
 **   ##  ## ##  ##   ##  ##  ##      ####     ###    ##   ######   ######    **
 **    ##  ###   ##   ##  ##  ##      ## ##      ##   ##   ##       ##        **
 **     #######   #####   ##   #####  ##  ##  ####    ##    #####   ##        **
 **           ##                                                    ##        **
 **                                                                           **
 **                                                ... make the atoms dance   **
 **                                                                           **
 **            Copyright (C) by CP2K developers group (2000 - 2019)           **
 **                                                                           **
 *******************************************************************************

 *** WARNING in qs_environment.F:1310 :: More added MOs requested than ***
 *** available. The full set of unoccupied MOs will be used.           ***



 TOTAL NUMBERS AND MAXIMUM NUMBERS

  Total number of            - Atomic kinds:                                   2
                             - Atoms:                                         51
                             - Shell sets:                                    51
                             - Shells:                                       151
                             - Primitive Cartesian functions:                252
                             - Cartesian basis functions:                    501
                             - Spherical basis functions:                    451

  Maximum angular momentum of- Orbital basis functions:                        2
                             - Local part of the GTH pseudopotential:          2
                             - Non-local part of the GTH pseudopotential:      4


 SCF PARAMETERS         Density guess:                                    ATOMIC
                        --------------------------------------------------------
                        max_scf:                                             100
                        max_scf_history:                                       0
                        max_diis:                                              4
                        --------------------------------------------------------
                        eps_scf:                                        1.00E-08
                        eps_scf_history:                                0.00E+00
                        eps_diis:                                       1.00E-01
                        eps_eigval:                                     1.00E-05
                        --------------------------------------------------------
                        level_shift [a.u.]:                                 0.00
                        added MOs                                       175    0
                        --------------------------------------------------------
                        Mixing method:                              PULAY_MIXING
                                                charge density mixing in g-space
                        --------------------------------------------------------
                        Smear method:                                FERMI_DIRAC
                        Electronic temperature [K]:                       1000.0
                        Electronic temperature [a.u.]:                  3.17E-03
                        Accuracy threshold:                             1.00E-10
                        --------------------------------------------------------
                        Outer loop SCF in use 
                        No variables optimised in outer loop
                        eps_scf                                         1.00E-06
                        max_scf                                              100
                        Steepest descent optimization
                        step_size                                       5.00E-01

 Number of electrons:                                                        552
 Number of occupied orbitals:                                                276
 Number of molecular orbitals:                                               451

 Number of orbital functions:                                                451
 Number of independent orbital functions:                                    451

 Extrapolation method: initial_guess


 SCF WAVEFUNCTION OPTIMIZATION

  Step     Update method      Time    Convergence         Total energy    Change
  ------------------------------------------------------------------------------
     1 NoMix/Diag. 0.20E+00    1.4     0.31008915     -1662.5297504569 -1.66E+03
     2 Pulay/Diag. 0.20E+00    1.7     0.02784589     -1702.5728534436 -4.00E+01
     3 Pulay/Diag. 0.20E+00    1.7     0.05003115     -1677.8164250029  2.48E+01
     4 Pulay/Diag. 0.20E+00    1.8     0.01518292     -1664.6271890687  1.32E+01
     5 Pulay/Diag. 0.20E+00    1.9     0.00264228     -1663.3195378037  1.31E+00
     6 Pulay/Diag. 0.20E+00    1.8     0.00364952     -1663.2210172000  9.85E-02
     7 Pulay/Diag. 0.20E+00    1.8     0.00208982     -1663.2522239602 -3.12E-02
     8 Pulay/Diag. 0.20E+00    1.8     0.00054791     -1663.2741980512 -2.20E-02
     9 Pulay/Diag. 0.20E+00    1.8     0.00058557     -1663.2706146164  3.58E-03
    10 Pulay/Diag. 0.20E+00    1.8     0.00046523     -1663.2331757057  3.74E-02
    11 Pulay/Diag. 0.20E+00    1.8     0.00030460     -1663.2222956526  1.09E-02
    12 Pulay/Diag. 0.20E+00    1.8     0.00023175     -1663.2095735614  1.27E-02
    13 Pulay/Diag. 0.20E+00    1.8     0.00021540     -1663.1947363411  1.48E-02
    14 Pulay/Diag. 0.20E+00    1.8     0.00010984     -1663.1883977441  6.34E-03
    15 Pulay/Diag. 0.20E+00    1.8     0.00003633     -1663.1865926150  1.81E-03
    16 Pulay/Diag. 0.20E+00    1.8     0.00001865     -1663.1875820957 -9.89E-04
    17 Pulay/Diag. 0.20E+00    1.8     0.00001172     -1663.1871344877  4.48E-04
    18 Pulay/Diag. 0.20E+00    1.8     0.00000712     -1663.1871881386 -5.37E-05
    19 Pulay/Diag. 0.20E+00    1.8     0.00000475     -1663.1871250373  6.31E-05
    20 Pulay/Diag. 0.20E+00    1.8     0.00000355     -1663.1870794137  4.56E-05
    21 Pulay/Diag. 0.20E+00    1.9     0.00000137     -1663.1870900925 -1.07E-05
    22 Pulay/Diag. 0.20E+00    1.8     0.00000062     -1663.1870996834 -9.59E-06
    23 Pulay/Diag. 0.20E+00    1.8     0.00000074     -1663.1870687776  3.09E-05
    24 Pulay/Diag. 0.20E+00    1.8     0.00000058     -1663.1870600716  8.71E-06
    25 Pulay/Diag. 0.20E+00    1.8     0.00000046     -1663.1870657016 -5.63E-06
    26 Pulay/Diag. 0.20E+00    1.8     0.00000048     -1663.1870630615  2.64E-06
    27 Pulay/Diag. 0.20E+00    1.9     0.00000033     -1663.1870561729  6.89E-06
    28 Pulay/Diag. 0.20E+00    1.9     0.00000028     -1663.1870478471  8.33E-06
    29 Pulay/Diag. 0.20E+00    1.9     0.00000036     -1663.1870427645  5.08E-06
    30 Pulay/Diag. 0.20E+00    1.8     0.00000022     -1663.1870388898  3.87E-06
    31 Pulay/Diag. 0.20E+00    1.8     0.00000012     -1663.1870365884  2.30E-06
    32 Pulay/Diag. 0.20E+00    1.8     0.00000007     -1663.1870347468  1.84E-06
    33 Pulay/Diag. 0.20E+00    1.8     0.00000005     -1663.1870337832  9.64E-07
    34 Pulay/Diag. 0.20E+00    1.8     0.00000002     -1663.1870352510 -1.47E-06
    35 Pulay/Diag. 0.20E+00    1.8     0.00000002     -1663.1870339572  1.29E-06
    36 Pulay/Diag. 0.20E+00    1.8     0.00000004     -1663.1870332198  7.37E-07
    37 Pulay/Diag. 0.20E+00    1.8     0.00000003     -1663.1870327179  5.02E-07
    38 Pulay/Diag. 0.20E+00    1.8     0.00000001     -1663.1870324284  2.90E-07
    39 Pulay/Diag. 0.20E+00    1.8     7.8732E-09     -1663.1870324311 -2.75E-09

  *** SCF run converged in    39 steps ***


  Electronic density on regular grids:       -551.9999999995        0.0000000005
  Core density on regular grids:              552.0000000000       -0.0000000000
  Hard and soft densities (Lebedev):           -0.0000000000       -0.0000000000
  Total Rho_soft + Rho1_hard - Rho1_soft     -551.9999999995
  Total charge density (r-space):               0.0000000005
  Total Rho_soft + Rho0_soft (g-space):         0.0000000005

  Overlap energy of the core charge distribution:               0.00000004542016
  Self energy of the core charge distribution:              -2898.30882843202517
  Core Hamiltonian energy:                                    924.08971850447392
  Hartree energy:                                             571.48196171616223
  Exchange-correlation energy:                               -260.42660341810091

  GAPW| Exc from hard and soft atomic rho1:                     0.00000000000000
  GAPW| local Eh = 1 center integrals:                          0.00000000000000
  Electronic entropic energy:                                  -0.02328084695436
  Fermi energy:                                                -0.06284537905104

  Total energy:                                             -1663.18703243114919

  outer SCF iter =    1 RMS gradient =   0.79E-08 energy =      -1663.1870324311
  outer SCF loop converged in   1 iterations or   39 steps


 ENERGY| Total FORCE_EVAL ( QS ) energy (a.u.):            -1663.187032210970074


 -------------------------------------------------------------------------------
 -                                                                             -
 -                                DBCSR STATISTICS                             -
 -                                                                             -
 -------------------------------------------------------------------------------
 COUNTER                                    TOTAL       BLAS       SMM       ACC
 flops     1 x     1 x     3                  234       0.0%    100.0%      0.0%
 flops     1 x     1 x    32                34944       0.0%    100.0%      0.0%
 flops     1 x     9 x     3                52650       0.0%    100.0%      0.0%
 flops     9 x     1 x     3                52650       0.0%    100.0%      0.0%
 flops     1 x     9 x    32              7862400       0.0%    100.0%      0.0%
 flops     9 x     1 x    32              7862400       0.0%    100.0%      0.0%
 flops     9 x     9 x     3             24166350       0.0%    100.0%      0.0%
 flops     9 x     9 x    32           3608841600       0.0%    100.0%      0.0%
 flops inhomo. stacks                           0       0.0%      0.0%      0.0%
 flops total                         3.648873E+09       0.0%    100.0%      0.0%
 flops max/rank                    140.254686E+06       0.0%    100.0%      0.0%
 matmuls inhomo. stacks                         0       0.0%      0.0%      0.0%
 matmuls total                             775710       0.0%    100.0%      0.0%
 number of processed stacks                 31590       0.0%    100.0%      0.0%
 average stack size                                     0.0      24.6       0.0
 marketing flops                     4.498012E+09
 -------------------------------------------------------------------------------
 # multiplications                             39
 max memory usage/rank             302.178304E+06
 # max total images/rank                        5
 # max 3D layers                                1
 # MPI messages exchanged                   51480
 MPI messages size (bytes):
  total size                       761.533312E+06
  min size                           0.000000E+00
  max size                          32.512000E+03
  average size                      14.792800E+03
 MPI breakdown and total messages size (bytes):
             size <=      128               12870                        0
       128 < size <=     8192                2574                  5065632
      8192 < size <=    32768               36036                756467712
     32768 < size <=   131072                   0                        0
    131072 < size <=  4194304                   0                        0
   4194304 < size <= 16777216                   0                        0
  16777216 < size                               0                        0
 -------------------------------------------------------------------------------

 *** WARNING in dbcsr_mm.F:295 :: Using a non-square number of MPI ranks ***
 *** might lead to poor performance. Used ranks: 40 Suggested: 36 81     ***

 -------------------------------------------------------------------------------
 -                                                                             -
 -                      DBCSR MESSAGE PASSING PERFORMANCE                      -
 -                                                                             -
 -------------------------------------------------------------------------------
 ROUTINE             CALLS      AVE VOLUME [Bytes]
 MP_Group               41
 MP_Bcast                9                     12.
 MP_Allreduce          311                     10.
 MP_Alltoall          1104                  26204.
 MP_Wait              2808
 MP_ISend             3042                   8465.
 MP_IRecv             2964                   7470.
 MP_Memory            8190
 -------------------------------------------------------------------------------

 MEMORY| Estimated peak process memory [MiB]                                 366

 -------------------------------------------------------------------------------
 -                                                                             -
 -                         MESSAGE PASSING PERFORMANCE                         -
 -                                                                             -
 -------------------------------------------------------------------------------

 ROUTINE             CALLS      AVE VOLUME [Bytes]
 MP_Group                6
 MP_Bcast              148                2408773.
 MP_Allreduce          742                  88845.
 MP_Sync                46
 MP_Alltoall           639                6253291.
 MP_SendRecv           640                 373248.
 MP_ISendRecv        21879                 706556.
 MP_Wait             21879
 MP_Recv                28                 115456.
 -------------------------------------------------------------------------------


 -------------------------------------------------------------------------------
 -                                                                             -
 -                           R E F E R E N C E S                               -
 -                                                                             -
 -------------------------------------------------------------------------------
 
 CP2K version 7.1, the CP2K developers group (2019).
 CP2K is freely available from https://www.cp2k.org/ .

 Schuett, Ole; Messmer, Peter; Hutter, Juerg; VandeVondele, Joost. 
 Electronic Structure Calculations on Graphics Processing Units, John
 Wiley & Sons, Ltd, 173-190 (2016). 
 GPU-Accelerated Sparse Matrix-Matrix Multiplication for
 Linear Scaling Density Functional Theory.
 https://dx.doi.org/10.1002/9781118670712.ch8

 Borstnik, U; VandeVondele, J; Weber, V; Hutter, J. 
 PARALLEL COMPUTING, 40 (5-6), 47-58 (2014). 
 Sparse matrix multiplication: The distributed block-compressed sparse
 row library.
 https://dx.doi.org/10.1016/j.parco.2014.03.012

 Hutter, J; Iannuzzi, M; Schiffmann, F; VandeVondele, J. 
 WIREs Comput Mol Sci., 4 (1), 15-25 (2014). 
 CP2K: atomistic simulations of condensed matter systems.
 https://dx.doi.org/10.1002/wcms.1159

 Marek, A; Blum, V; Johanni, R; Havu, V; Lang, B; Auckenthaler, T;
 Heinecke, A; Bungartz, H; Lederer, H. 
 Journal of Physics: Condensed Matter, 26 (21), (2014). 
 The ELPA library: scalable parallel eigenvalue solutions for
 electronic structure
 theory and computational science.
 https://dx.doi.org/10.1088/0953-8984/26/21/213201

 VandeVondele, J; Hutter, J. 
 JOURNAL OF CHEMICAL PHYSICS, 127 (11), 114105 (2007). 
 Gaussian basis sets for accurate calculations on molecular systems in
 gas and condensed phases.
 https://dx.doi.org/10.1063/1.2770708

 Krack, M. 
 THEORETICAL CHEMISTRY ACCOUNTS, 114 (1-3), 145-152 (2005). 
 Pseudopotentials for H to Kr optimized for gradient-corrected
 exchange-correlation functionals.
 https://dx.doi.org/10.1007/s00214-005-0655-y

 Frigo, M; Johnson, SG. 
 PROCEEDINGS OF THE IEEE, 93 (2), 216-231 (2005). 
 The design and implementation of FFTW3.
 https://dx.doi.org/10.1109/JPROC.2004.840301

 Lippert, G; Hutter, J; Parrinello, M. 
 THEORETICAL CHEMISTRY ACCOUNTS, 103 (2), 124-140 (1999). 
 The Gaussian and augmented-plane-wave density functional method for ab
 initio molecular dynamics simulations.
 https://dx.doi.org/10.1007/s002140050523

 Krack, M; Parrinello, M. 
 PHYSICAL CHEMISTRY CHEMICAL PHYSICS, 2 (10), 2105-2112 (2000). 
 All-electron ab-initio molecular dynamics.
 https://dx.doi.org/10.1039/b001167n

 Hartwigsen, C; Goedecker, S; Hutter, J. 
 PHYSICAL REVIEW B, 58 (7), 3641-3662 (1998). 
 Relativistic separable dual-space Gaussian pseudopotentials from H to Rn.
 https://dx.doi.org/10.1103/PhysRevB.58.3641

 Perdew, JP; Burke, K; Ernzerhof, M. 
 PHYSICAL REVIEW LETTERS, 77 (18), 3865-3868 (1996). 
 Generalized gradient approximation made simple.
 https://dx.doi.org/10.1103/PhysRevLett.77.3865

 Goedecker, S; Teter, M; Hutter, J. 
 PHYSICAL REVIEW B, 54 (3), 1703-1710 (1996). 
 Separable dual-space Gaussian pseudopotentials.
 https://dx.doi.org/10.1103/PhysRevB.54.1703


 -------------------------------------------------------------------------------
 -                                                                             -
 -                                T I M I N G                                  -
 -                                                                             -
 -------------------------------------------------------------------------------
 SUBROUTINE                       CALLS  ASD         SELF TIME        TOTAL TIME
                                MAXIMUM       AVERAGE  MAXIMUM  AVERAGE  MAXIMUM
 CP2K                                 1  1.0    0.024    0.041   72.937   72.939
 qs_energies                          1  2.0    0.003    0.004   72.506   72.506
 scf_env_do_scf                       1  3.0    0.000    0.000   70.595   70.598
 scf_env_do_scf_inner_loop           39  4.0    0.003    0.005   70.594   70.598
 qs_ks_update_qs_env                 40  5.0    0.000    0.000   41.653   42.089
 rebuild_ks_matrix                   40  6.0    0.000    0.000   41.646   42.083
 qs_ks_build_kohn_sham_matrix        40  7.0    0.007    0.010   41.646   42.082
 rs_pw_transfer                     561  9.5    0.005    0.008   29.688   33.559
 mp_waitall_1                     24687 11.5   15.151   20.571   15.151   20.571
 qs_rho_update_rho                   40  5.0    0.000    0.000   18.788   18.791
 calculate_rho_elec                  40  6.0    5.467    8.750   18.783   18.785
 sum_up_and_integrate                40  8.0    0.038    0.042   14.967   18.473
 integrate_v_rspace                  40  9.0    5.712    9.217   14.929   18.432
 rs_pw_transfer_PW2RS_250            80 11.0    7.282    8.186   14.497   16.586
 rs_pw_transfer_RS2PW_250            81 10.0    4.951    5.238   12.982   14.807
 density_rs2pw                       40  7.0    0.002    0.003   11.643   13.474
 integrate_vhg0_rspace               40  8.0    0.021    0.035    9.139   11.221
 potential_pw2rs                     40 10.0    0.005    0.006    9.211    9.214
 pw_transfer                        759  9.2    0.043    0.047    8.599    8.823
 fft_wrap_pw1pw2                    639 10.1    0.005    0.005    8.337    8.552
 prepare_gapw_den                    40  8.0    0.000    0.001    8.144    8.164
 put_rho0_on_grid                    40  9.0    0.060    0.068    8.142    8.162
 fft_wrap_pw1pw2_250                239 10.5    0.713    0.751    7.823    8.075
 qs_scf_loop_print                   39  5.0    0.205    6.836    7.317    7.982
 qs_vxc_create                       40  8.0    0.000    0.001    7.098    7.101
 xc_vxc_pw_create                    40  9.0    0.141    0.157    7.098    7.100
 fft3d_ps                           639 12.1    4.101    4.457    6.241    6.460
 mp_sync                             46  6.1    6.051    6.208    6.051    6.208
 xc_rho_set_and_dset_create          40 10.0    0.087    0.092    5.341    5.893
 xc_functional_eval                  40 11.0    0.000    0.000    4.036    4.555
 pbe_lda_eval                        40 12.0    4.036    4.555    4.036    4.555
 rs_grid_zero                       321  7.6    3.882    4.016    3.882    4.016
 pw_nn_compose_r                    320 10.5    1.747    1.838    2.524    2.908
 mp_isendrecv_dv                  21879 11.5    1.354    2.775    1.354    2.775
 gspace_mixing                       38  5.0    0.056    0.062    2.694    2.696
 mp_sum_dm                           40  6.0    1.224    1.911    1.224    1.911
 qs_scf_new_mos                      39  5.0    0.001    0.001    1.474    1.477
 mp_alltoall_z22v                   639 14.1    1.267    1.467    1.267    1.467
 -------------------------------------------------------------------------------

 The number of warnings for this run is : 2
 
 -------------------------------------------------------------------------------
  **** **** ******  **  PROGRAM ENDED AT                 2022-12-13 00:57:08.574
 ***** ** ***  *** **   PROGRAM RAN ON                             node-c12o-001
 **    ****   ******    PROGRAM RAN BY                                   mmm0666
 ***** **    ** ** **   PROGRAM PROCESS ID                                 47708
  **** **  *******  **  PROGRAM STOPPED IN /lustre/home/mmm0666/cp2k_ksprint/he_
                                           grid/He21
