 DBCSR| CPU Multiplication driver                                           XSMM
 DBCSR| Multrec recursion limit                                              512
 DBCSR| Multiplication stack size                                           1000
 DBCSR| Maximum elements for images                                    UNLIMITED
 DBCSR| Multiplicative factor virtual images                                   1
 DBCSR| Use multiplication densification                                       T
 DBCSR| Multiplication size stacks                                             3
 DBCSR| Number of 3D layers                                               SINGLE
 DBCSR| Use MPI memory allocation                                              T
 DBCSR| Use RMA algorithm                                                      F
 DBCSR| Use Communication thread                                               T
 DBCSR| Communication thread load                                             87


  **** **** ******  **  PROGRAM STARTED AT               2022-12-13 00:55:55.736
 ***** ** ***  *** **   PROGRAM STARTED ON                         node-c12g-006
 **    ****   ******    PROGRAM STARTED BY                               mmm0666
 ***** **    ** ** **   PROGRAM PROCESS ID                                 38422
  **** **  *******  **  PROGRAM STARTED IN /lustre/home/mmm0666/cp2k_ksprint/he_
                                           grid/He22

 CP2K| version string:                                          CP2K version 7.1
 CP2K| source code revision number:                                  git:e635599
 CP2K| cp2kflags: libint fftw3 libxc elpa parallel mpi3 scalapack quip xsmm spgl
 CP2K|            ib
 CP2K| is freely available from                            https://www.cp2k.org/
 CP2K| Program compiled at                          Wed  8 Jan 12:34:35 GMT 2020
 CP2K| Program compiled on                                               login01
 CP2K| Program compiled for                                                local
 CP2K| Data directory path     /shared/ucl/apps/cp2k/7.1/gnu-4.9.2/cp2k-7.1/data
 CP2K| Input file name                                                 input.inp

 GLOBAL| Force Environment number                                              1
 GLOBAL| Basis set file name            /shared/ucl/apps/cp2k/7.1/gnu-4.9.2/cp2k
 GLOBAL| Potential file name            /shared/ucl/apps/cp2k/7.1/gnu-4.9.2/cp2k
 GLOBAL| MM Potential file name                                     MM_POTENTIAL
 GLOBAL| Coordinate file name                                            mol.xyz
 GLOBAL| Method name                                                        CP2K
 GLOBAL| Project name                                                       Gold
 GLOBAL| Preferred FFT library                                             FFTW3
 GLOBAL| Preferred diagonalization lib.                                     ELPA
 GLOBAL| Run type                                                         ENERGY
 GLOBAL| All-to-all communication in single precision                          F
 GLOBAL| FFTs using library dependent lengths                                  F
 GLOBAL| Global print level                                                  LOW
 GLOBAL| MPI I/O enabled                                                       T
 GLOBAL| Total number of message passing processes                            40
 GLOBAL| Number of threads for this process                                    1
 GLOBAL| This output is from process                                           0
 GLOBAL| CPU model name                 Intel(R) Xeon(R) Gold 6248 CPU @ 2.50GHz
 GLOBAL| CPUID                                                              1003

 MEMORY| system memory details [Kb]
 MEMORY|                        rank 0           min           max       average
 MEMORY| MemTotal            197730152     197730152     197730152     197730152
 MEMORY| MemFree             178193680     178192672     178193680     178192697
 MEMORY| Buffers                     0             0             0             0
 MEMORY| Cached               11416760      11416760      11416760      11416760
 MEMORY| Slab                  1403716       1403716       1403716       1403716
 MEMORY| SReclaimable           569416        569416        569416        569416
 MEMORY| MemLikelyFree       190179856     190178848     190179856     190178873


 GENERATE|  Preliminary Number of Bonds generated:                             0
 GENERATE|  Achieved consistency in connectivity generation.

 *******************************************************************************
 *******************************************************************************
 **                                                                           **
 **     #####                         ##              ##                      **
 **    ##   ##            ##          ##              ##                      **
 **   ##     ##                       ##            ######                    **
 **   ##     ##  ##   ##  ##   #####  ##  ##   ####   ##    #####    #####    **
 **   ##     ##  ##   ##  ##  ##      ## ##   ##      ##   ##   ##  ##   ##   **
 **   ##  ## ##  ##   ##  ##  ##      ####     ###    ##   ######   ######    **
 **    ##  ###   ##   ##  ##  ##      ## ##      ##   ##   ##       ##        **
 **     #######   #####   ##   #####  ##  ##  ####    ##    #####   ##        **
 **           ##                                                    ##        **
 **                                                                           **
 **                                                ... make the atoms dance   **
 **                                                                           **
 **            Copyright (C) by CP2K developers group (2000 - 2019)           **
 **                                                                           **
 *******************************************************************************

 *** WARNING in qs_environment.F:1310 :: More added MOs requested than ***
 *** available. The full set of unoccupied MOs will be used.           ***



 TOTAL NUMBERS AND MAXIMUM NUMBERS

  Total number of            - Atomic kinds:                                   2
                             - Atoms:                                         51
                             - Shell sets:                                    51
                             - Shells:                                       151
                             - Primitive Cartesian functions:                252
                             - Cartesian basis functions:                    501
                             - Spherical basis functions:                    451

  Maximum angular momentum of- Orbital basis functions:                        2
                             - Local part of the GTH pseudopotential:          2
                             - Non-local part of the GTH pseudopotential:      4


 SCF PARAMETERS         Density guess:                                    ATOMIC
                        --------------------------------------------------------
                        max_scf:                                             100
                        max_scf_history:                                       0
                        max_diis:                                              4
                        --------------------------------------------------------
                        eps_scf:                                        1.00E-08
                        eps_scf_history:                                0.00E+00
                        eps_diis:                                       1.00E-01
                        eps_eigval:                                     1.00E-05
                        --------------------------------------------------------
                        level_shift [a.u.]:                                 0.00
                        added MOs                                       175    0
                        --------------------------------------------------------
                        Mixing method:                              PULAY_MIXING
                                                charge density mixing in g-space
                        --------------------------------------------------------
                        Smear method:                                FERMI_DIRAC
                        Electronic temperature [K]:                       1000.0
                        Electronic temperature [a.u.]:                  3.17E-03
                        Accuracy threshold:                             1.00E-10
                        --------------------------------------------------------
                        Outer loop SCF in use 
                        No variables optimised in outer loop
                        eps_scf                                         1.00E-06
                        max_scf                                              100
                        Steepest descent optimization
                        step_size                                       5.00E-01

 Number of electrons:                                                        552
 Number of occupied orbitals:                                                276
 Number of molecular orbitals:                                               451

 Number of orbital functions:                                                451
 Number of independent orbital functions:                                    451

 Extrapolation method: initial_guess


 SCF WAVEFUNCTION OPTIMIZATION

  Step     Update method      Time    Convergence         Total energy    Change
  ------------------------------------------------------------------------------
     1 NoMix/Diag. 0.20E+00    1.4     0.31011569     -1662.5298832010 -1.66E+03
     2 Pulay/Diag. 0.20E+00    1.8     0.02784654     -1702.5730882298 -4.00E+01
     3 Pulay/Diag. 0.20E+00    1.8     0.05015903     -1677.8147871896  2.48E+01
     4 Pulay/Diag. 0.20E+00    1.7     0.01518205     -1664.6269823832  1.32E+01
     5 Pulay/Diag. 0.20E+00    1.8     0.00274862     -1663.3194639233  1.31E+00
     6 Pulay/Diag. 0.20E+00    1.7     0.00373833     -1663.2221266981  9.73E-02
     7 Pulay/Diag. 0.20E+00    1.7     0.00222773     -1663.2528488857 -3.07E-02
     8 Pulay/Diag. 0.20E+00    1.8     0.00055637     -1663.2741372217 -2.13E-02
     9 Pulay/Diag. 0.20E+00    1.8     0.00067664     -1663.2714253128  2.71E-03
    10 Pulay/Diag. 0.20E+00    1.8     0.00055761     -1663.2341669890  3.73E-02
    11 Pulay/Diag. 0.20E+00    1.8     0.00027121     -1663.2227879262  1.14E-02
    12 Pulay/Diag. 0.20E+00    1.7     0.00025139     -1663.2102625630  1.25E-02
    13 Pulay/Diag. 0.20E+00    1.8     0.00022849     -1663.1956547435  1.46E-02
    14 Pulay/Diag. 0.20E+00    1.8     0.00011683     -1663.1889711178  6.68E-03
    15 Pulay/Diag. 0.20E+00    1.8     0.00003686     -1663.1869632341  2.01E-03
    16 Pulay/Diag. 0.20E+00    1.8     0.00002246     -1663.1879949277 -1.03E-03
    17 Pulay/Diag. 0.20E+00    1.8     0.00001266     -1663.1875562379  4.39E-04
    18 Pulay/Diag. 0.20E+00    1.8     0.00000725     -1663.1875871350 -3.09E-05
    19 Pulay/Diag. 0.20E+00    1.8     0.00000518     -1663.1875371343  5.00E-05
    20 Pulay/Diag. 0.20E+00    1.8     0.00000371     -1663.1874881171  4.90E-05
    21 Pulay/Diag. 0.20E+00    1.8     0.00000142     -1663.1874984592 -1.03E-05
    22 Pulay/Diag. 0.20E+00    1.9     0.00000069     -1663.1875087160 -1.03E-05
    23 Pulay/Diag. 0.20E+00    1.8     0.00000070     -1663.1874794081  2.93E-05
    24 Pulay/Diag. 0.20E+00    1.8     0.00000051     -1663.1874699957  9.41E-06
    25 Pulay/Diag. 0.20E+00    1.8     0.00000047     -1663.1874752037 -5.21E-06
    26 Pulay/Diag. 0.20E+00    1.8     0.00000049     -1663.1874729821  2.22E-06
    27 Pulay/Diag. 0.20E+00    1.8     0.00000040     -1663.1874662133  6.77E-06
    28 Pulay/Diag. 0.20E+00    1.8     0.00000027     -1663.1874579450  8.27E-06
    29 Pulay/Diag. 0.20E+00    1.8     0.00000031     -1663.1874539968  3.95E-06
    30 Pulay/Diag. 0.20E+00    1.8     0.00000019     -1663.1874510858  2.91E-06
    31 Pulay/Diag. 0.20E+00    1.8     0.00000010     -1663.1874482847  2.80E-06
    32 Pulay/Diag. 0.20E+00    1.8     0.00000007     -1663.1874464698  1.81E-06
    33 Pulay/Diag. 0.20E+00    1.8     0.00000006     -1663.1874454113  1.06E-06
    34 Pulay/Diag. 0.20E+00    1.8     0.00000003     -1663.1874468477 -1.44E-06
    35 Pulay/Diag. 0.20E+00    1.8     0.00000002     -1663.1874454783  1.37E-06
    36 Pulay/Diag. 0.20E+00    1.8     0.00000003     -1663.1874446092  8.69E-07
    37 Pulay/Diag. 0.20E+00    1.8     0.00000003     -1663.1874441737  4.35E-07
    38 Pulay/Diag. 0.20E+00    1.8     0.00000002     -1663.1874437982  3.75E-07
    39 Pulay/Diag. 0.20E+00    1.8     0.00000001     -1663.1874438105 -1.23E-08
    40 Pulay/Diag. 0.20E+00    1.8     5.9760E-09     -1663.1874436804  1.30E-07

  *** SCF run converged in    40 steps ***


  Electronic density on regular grids:       -551.9999999995        0.0000000005
  Core density on regular grids:              552.0000000000       -0.0000000000
  Hard and soft densities (Lebedev):           -0.0000000000       -0.0000000000
  Total Rho_soft + Rho1_hard - Rho1_soft     -551.9999999995
  Total charge density (r-space):               0.0000000005
  Total Rho_soft + Rho0_soft (g-space):         0.0000000005

  Overlap energy of the core charge distribution:               0.00000004542016
  Self energy of the core charge distribution:              -2898.30882843202517
  Core Hamiltonian energy:                                    924.08579964336150
  Hartree energy:                                             571.48432812577562
  Exchange-correlation energy:                               -260.42546436351705

  GAPW| Exc from hard and soft atomic rho1:                     0.00000000000000
  GAPW| local Eh = 1 center integrals:                          0.00000000000000
  Electronic entropic energy:                                  -0.02327869939681
  Fermi energy:                                                -0.06280948343772

  Total energy:                                             -1663.18744368043099

  outer SCF iter =    1 RMS gradient =   0.60E-08 energy =      -1663.1874436804
  outer SCF loop converged in   1 iterations or   40 steps


 ENERGY| Total FORCE_EVAL ( QS ) energy (a.u.):            -1663.187443484622918


 -------------------------------------------------------------------------------
 -                                                                             -
 -                                DBCSR STATISTICS                             -
 -                                                                             -
 -------------------------------------------------------------------------------
 COUNTER                                    TOTAL       BLAS       SMM       ACC
 flops     1 x     1 x     3                  240       0.0%    100.0%      0.0%
 flops     1 x     1 x    32                35840       0.0%    100.0%      0.0%
 flops     1 x     9 x     3                54000       0.0%    100.0%      0.0%
 flops     9 x     1 x     3                54000       0.0%    100.0%      0.0%
 flops     1 x     9 x    32              8064000       0.0%    100.0%      0.0%
 flops     9 x     1 x    32              8064000       0.0%    100.0%      0.0%
 flops     9 x     9 x     3             24786000       0.0%    100.0%      0.0%
 flops     9 x     9 x    32           3701376000       0.0%    100.0%      0.0%
 flops inhomo. stacks                           0       0.0%      0.0%      0.0%
 flops total                         3.742434E+09       0.0%    100.0%      0.0%
 flops max/rank                    143.850960E+06       0.0%    100.0%      0.0%
 matmuls inhomo. stacks                         0       0.0%      0.0%      0.0%
 matmuls total                             795600       0.0%    100.0%      0.0%
 number of processed stacks                 32400       0.0%    100.0%      0.0%
 average stack size                                     0.0      24.6       0.0
 marketing flops                     4.613137E+09
 -------------------------------------------------------------------------------
 # multiplications                             40
 max memory usage/rank             302.202880E+06
 # max total images/rank                        5
 # max 3D layers                                1
 # MPI messages exchanged                   52800
 MPI messages size (bytes):
  total size                       781.059840E+06
  min size                           0.000000E+00
  max size                          32.512000E+03
  average size                      14.792800E+03
 MPI breakdown and total messages size (bytes):
             size <=      128               13200                        0
       128 < size <=     8192                2640                  5195520
      8192 < size <=    32768               36960                775864320
     32768 < size <=   131072                   0                        0
    131072 < size <=  4194304                   0                        0
   4194304 < size <= 16777216                   0                        0
  16777216 < size                               0                        0
 -------------------------------------------------------------------------------

 *** WARNING in dbcsr_mm.F:295 :: Using a non-square number of MPI ranks ***
 *** might lead to poor performance. Used ranks: 40 Suggested: 36 81     ***

 -------------------------------------------------------------------------------
 -                                                                             -
 -                      DBCSR MESSAGE PASSING PERFORMANCE                      -
 -                                                                             -
 -------------------------------------------------------------------------------
 ROUTINE             CALLS      AVE VOLUME [Bytes]
 MP_Group               42
 MP_Bcast                9                     12.
 MP_Allreduce          318                     10.
 MP_Alltoall          1132                  26203.
 MP_Wait              2880
 MP_ISend             3120                   8465.
 MP_IRecv             3040                   7470.
 MP_Memory            8400
 -------------------------------------------------------------------------------

 MEMORY| Estimated peak process memory [MiB]                                 366

 -------------------------------------------------------------------------------
 -                                                                             -
 -                         MESSAGE PASSING PERFORMANCE                         -
 -                                                                             -
 -------------------------------------------------------------------------------

 ROUTINE             CALLS      AVE VOLUME [Bytes]
 MP_Group                6
 MP_Bcast              150                2376670.
 MP_Allreduce          759                  88999.
 MP_Sync                47
 MP_Alltoall           655                6253645.
 MP_SendRecv           656                 373248.
 MP_ISendRecv        22425                 706489.
 MP_Wait             22425
 MP_Recv                28                 115456.
 -------------------------------------------------------------------------------


 -------------------------------------------------------------------------------
 -                                                                             -
 -                           R E F E R E N C E S                               -
 -                                                                             -
 -------------------------------------------------------------------------------
 
 CP2K version 7.1, the CP2K developers group (2019).
 CP2K is freely available from https://www.cp2k.org/ .

 Schuett, Ole; Messmer, Peter; Hutter, Juerg; VandeVondele, Joost. 
 Electronic Structure Calculations on Graphics Processing Units, John
 Wiley & Sons, Ltd, 173-190 (2016). 
 GPU-Accelerated Sparse Matrix-Matrix Multiplication for
 Linear Scaling Density Functional Theory.
 https://dx.doi.org/10.1002/9781118670712.ch8

 Borstnik, U; VandeVondele, J; Weber, V; Hutter, J. 
 PARALLEL COMPUTING, 40 (5-6), 47-58 (2014). 
 Sparse matrix multiplication: The distributed block-compressed sparse
 row library.
 https://dx.doi.org/10.1016/j.parco.2014.03.012

 Hutter, J; Iannuzzi, M; Schiffmann, F; VandeVondele, J. 
 WIREs Comput Mol Sci., 4 (1), 15-25 (2014). 
 CP2K: atomistic simulations of condensed matter systems.
 https://dx.doi.org/10.1002/wcms.1159

 Marek, A; Blum, V; Johanni, R; Havu, V; Lang, B; Auckenthaler, T;
 Heinecke, A; Bungartz, H; Lederer, H. 
 Journal of Physics: Condensed Matter, 26 (21), (2014). 
 The ELPA library: scalable parallel eigenvalue solutions for
 electronic structure
 theory and computational science.
 https://dx.doi.org/10.1088/0953-8984/26/21/213201

 VandeVondele, J; Hutter, J. 
 JOURNAL OF CHEMICAL PHYSICS, 127 (11), 114105 (2007). 
 Gaussian basis sets for accurate calculations on molecular systems in
 gas and condensed phases.
 https://dx.doi.org/10.1063/1.2770708

 Krack, M. 
 THEORETICAL CHEMISTRY ACCOUNTS, 114 (1-3), 145-152 (2005). 
 Pseudopotentials for H to Kr optimized for gradient-corrected
 exchange-correlation functionals.
 https://dx.doi.org/10.1007/s00214-005-0655-y

 Frigo, M; Johnson, SG. 
 PROCEEDINGS OF THE IEEE, 93 (2), 216-231 (2005). 
 The design and implementation of FFTW3.
 https://dx.doi.org/10.1109/JPROC.2004.840301

 Lippert, G; Hutter, J; Parrinello, M. 
 THEORETICAL CHEMISTRY ACCOUNTS, 103 (2), 124-140 (1999). 
 The Gaussian and augmented-plane-wave density functional method for ab
 initio molecular dynamics simulations.
 https://dx.doi.org/10.1007/s002140050523

 Krack, M; Parrinello, M. 
 PHYSICAL CHEMISTRY CHEMICAL PHYSICS, 2 (10), 2105-2112 (2000). 
 All-electron ab-initio molecular dynamics.
 https://dx.doi.org/10.1039/b001167n

 Hartwigsen, C; Goedecker, S; Hutter, J. 
 PHYSICAL REVIEW B, 58 (7), 3641-3662 (1998). 
 Relativistic separable dual-space Gaussian pseudopotentials from H to Rn.
 https://dx.doi.org/10.1103/PhysRevB.58.3641

 Perdew, JP; Burke, K; Ernzerhof, M. 
 PHYSICAL REVIEW LETTERS, 77 (18), 3865-3868 (1996). 
 Generalized gradient approximation made simple.
 https://dx.doi.org/10.1103/PhysRevLett.77.3865

 Goedecker, S; Teter, M; Hutter, J. 
 PHYSICAL REVIEW B, 54 (3), 1703-1710 (1996). 
 Separable dual-space Gaussian pseudopotentials.
 https://dx.doi.org/10.1103/PhysRevB.54.1703


 -------------------------------------------------------------------------------
 -                                                                             -
 -                                T I M I N G                                  -
 -                                                                             -
 -------------------------------------------------------------------------------
 SUBROUTINE                       CALLS  ASD         SELF TIME        TOTAL TIME
                                MAXIMUM       AVERAGE  MAXIMUM  AVERAGE  MAXIMUM
 CP2K                                 1  1.0    0.056    0.065   73.874   73.876
 qs_energies                          1  2.0    0.003    0.003   73.454   73.455
 scf_env_do_scf                       1  3.0    0.000    0.000   71.500   71.506
 scf_env_do_scf_inner_loop           40  4.0    0.003    0.005   71.500   71.506
 qs_ks_update_qs_env                 41  5.0    0.000    0.000   42.202   42.687
 rebuild_ks_matrix                   41  6.0    0.000    0.000   42.194   42.679
 qs_ks_build_kohn_sham_matrix        41  7.0    0.007    0.019   42.193   42.678
 rs_pw_transfer                     575  9.5    0.005    0.006   29.970   33.878
 mp_waitall_1                     25305 11.5   15.016   19.516   15.016   19.516
 qs_rho_update_rho                   41  5.0    0.000    0.000   19.149   19.152
 calculate_rho_elec                  41  6.0    5.601    8.977   19.144   19.146
 sum_up_and_integrate                41  8.0    0.039    0.043   15.082   18.685
 integrate_v_rspace                  41  9.0    5.845    9.446   15.043   18.642
 rs_pw_transfer_PW2RS_250            82 11.0    7.595    7.892   14.586   16.719
 rs_pw_transfer_RS2PW_250            83 10.0    5.020    5.154   13.167   15.088
 density_rs2pw                       41  7.0    0.002    0.003   11.847   13.742
 integrate_vhg0_rspace               41  8.0    0.022    0.036    9.276   11.391
 potential_pw2rs                     41 10.0    0.005    0.006    9.192    9.195
 pw_transfer                        778  9.2    0.043    0.047    8.735    8.949
 fft_wrap_pw1pw2                    655 10.1    0.005    0.006    8.469    8.679
 prepare_gapw_den                    41  8.0    0.000    0.001    8.234    8.254
 put_rho0_on_grid                    41  9.0    0.062    0.070    8.232    8.252
 fft_wrap_pw1pw2_250                245 10.5    0.725    0.753    7.947    8.190
 qs_scf_loop_print                   40  5.0    0.206    6.810    7.278    7.979
 qs_vxc_create                       41  8.0    0.000    0.001    7.260    7.260
 xc_vxc_pw_create                    41  9.0    0.145    0.160    7.259    7.259
 fft3d_ps                           655 12.1    4.180    4.572    6.331    6.583
 mp_sync                             47  6.1    6.160    6.321    6.160    6.321
 xc_rho_set_and_dset_create          41 10.0    0.090    0.095    5.476    6.094
 xc_functional_eval                  41 11.0    0.000    0.000    4.150    4.746
 pbe_lda_eval                        41 12.0    4.150    4.746    4.150    4.746
 rs_grid_zero                       329  7.6    3.949    4.097    3.949    4.097
 pw_nn_compose_r                    328 10.5    1.787    1.872    2.573    2.976
 gspace_mixing                       39  5.0    0.058    0.064    2.736    2.738
 mp_isendrecv_dv                  22425 11.5    1.367    2.484    1.367    2.484
 mp_sum_dm                           41  6.0    1.070    1.790    1.070    1.790
 -------------------------------------------------------------------------------

 The number of warnings for this run is : 2
 
 -------------------------------------------------------------------------------
  **** **** ******  **  PROGRAM ENDED AT                 2022-12-13 00:57:10.163
 ***** ** ***  *** **   PROGRAM RAN ON                             node-c12g-006
 **    ****   ******    PROGRAM RAN BY                                   mmm0666
 ***** **    ** ** **   PROGRAM PROCESS ID                                 38422
  **** **  *******  **  PROGRAM STOPPED IN /lustre/home/mmm0666/cp2k_ksprint/he_
                                           grid/He22
