 DBCSR| CPU Multiplication driver                                           XSMM
 DBCSR| Multrec recursion limit                                              512
 DBCSR| Multiplication stack size                                           1000
 DBCSR| Maximum elements for images                                    UNLIMITED
 DBCSR| Multiplicative factor virtual images                                   1
 DBCSR| Use multiplication densification                                       T
 DBCSR| Multiplication size stacks                                             3
 DBCSR| Number of 3D layers                                               SINGLE
 DBCSR| Use MPI memory allocation                                              T
 DBCSR| Use RMA algorithm                                                      F
 DBCSR| Use Communication thread                                               T
 DBCSR| Communication thread load                                             87


  **** **** ******  **  PROGRAM STARTED AT               2022-12-13 00:50:45.756
 ***** ** ***  *** **   PROGRAM STARTED ON                         node-c12h-001
 **    ****   ******    PROGRAM STARTED BY                               mmm0666
 ***** **    ** ** **   PROGRAM PROCESS ID                                 37057
  **** **  *******  **  PROGRAM STARTED IN /lustre/home/mmm0666/cp2k_ksprint/he_
                                           grid/He19

 CP2K| version string:                                          CP2K version 7.1
 CP2K| source code revision number:                                  git:e635599
 CP2K| cp2kflags: libint fftw3 libxc elpa parallel mpi3 scalapack quip xsmm spgl
 CP2K|            ib
 CP2K| is freely available from                            https://www.cp2k.org/
 CP2K| Program compiled at                          Wed  8 Jan 12:34:35 GMT 2020
 CP2K| Program compiled on                                               login01
 CP2K| Program compiled for                                                local
 CP2K| Data directory path     /shared/ucl/apps/cp2k/7.1/gnu-4.9.2/cp2k-7.1/data
 CP2K| Input file name                                                 input.inp

 GLOBAL| Force Environment number                                              1
 GLOBAL| Basis set file name            /shared/ucl/apps/cp2k/7.1/gnu-4.9.2/cp2k
 GLOBAL| Potential file name            /shared/ucl/apps/cp2k/7.1/gnu-4.9.2/cp2k
 GLOBAL| MM Potential file name                                     MM_POTENTIAL
 GLOBAL| Coordinate file name                                            mol.xyz
 GLOBAL| Method name                                                        CP2K
 GLOBAL| Project name                                                       Gold
 GLOBAL| Preferred FFT library                                             FFTW3
 GLOBAL| Preferred diagonalization lib.                                     ELPA
 GLOBAL| Run type                                                         ENERGY
 GLOBAL| All-to-all communication in single precision                          F
 GLOBAL| FFTs using library dependent lengths                                  F
 GLOBAL| Global print level                                                  LOW
 GLOBAL| MPI I/O enabled                                                       T
 GLOBAL| Total number of message passing processes                            40
 GLOBAL| Number of threads for this process                                    1
 GLOBAL| This output is from process                                           0
 GLOBAL| CPU model name                 Intel(R) Xeon(R) Gold 6248 CPU @ 2.50GHz
 GLOBAL| CPUID                                                              1003

 MEMORY| system memory details [Kb]
 MEMORY|                        rank 0           min           max       average
 MEMORY| MemTotal            197730152     197730152     197730152     197730152
 MEMORY| MemFree             178230376     178230376     178230376     178230376
 MEMORY| Buffers                     0             0             0             0
 MEMORY| Cached               11989664      11989664      11989664      11989664
 MEMORY| Slab                   776384        776384        776384        776384
 MEMORY| SReclaimable           193352        193352        193352        193352
 MEMORY| MemLikelyFree       190413392     190413392     190413392     190413392


 GENERATE|  Preliminary Number of Bonds generated:                             0
 GENERATE|  Achieved consistency in connectivity generation.

 *******************************************************************************
 *******************************************************************************
 **                                                                           **
 **     #####                         ##              ##                      **
 **    ##   ##            ##          ##              ##                      **
 **   ##     ##                       ##            ######                    **
 **   ##     ##  ##   ##  ##   #####  ##  ##   ####   ##    #####    #####    **
 **   ##     ##  ##   ##  ##  ##      ## ##   ##      ##   ##   ##  ##   ##   **
 **   ##  ## ##  ##   ##  ##  ##      ####     ###    ##   ######   ######    **
 **    ##  ###   ##   ##  ##  ##      ## ##      ##   ##   ##       ##        **
 **     #######   #####   ##   #####  ##  ##  ####    ##    #####   ##        **
 **           ##                                                    ##        **
 **                                                                           **
 **                                                ... make the atoms dance   **
 **                                                                           **
 **            Copyright (C) by CP2K developers group (2000 - 2019)           **
 **                                                                           **
 *******************************************************************************

 *** WARNING in qs_environment.F:1310 :: More added MOs requested than ***
 *** available. The full set of unoccupied MOs will be used.           ***



 TOTAL NUMBERS AND MAXIMUM NUMBERS

  Total number of            - Atomic kinds:                                   2
                             - Atoms:                                         51
                             - Shell sets:                                    51
                             - Shells:                                       151
                             - Primitive Cartesian functions:                252
                             - Cartesian basis functions:                    501
                             - Spherical basis functions:                    451

  Maximum angular momentum of- Orbital basis functions:                        2
                             - Local part of the GTH pseudopotential:          2
                             - Non-local part of the GTH pseudopotential:      4


 SCF PARAMETERS         Density guess:                                    ATOMIC
                        --------------------------------------------------------
                        max_scf:                                             100
                        max_scf_history:                                       0
                        max_diis:                                              4
                        --------------------------------------------------------
                        eps_scf:                                        1.00E-08
                        eps_scf_history:                                0.00E+00
                        eps_diis:                                       1.00E-01
                        eps_eigval:                                     1.00E-05
                        --------------------------------------------------------
                        level_shift [a.u.]:                                 0.00
                        added MOs                                       175    0
                        --------------------------------------------------------
                        Mixing method:                              PULAY_MIXING
                                                charge density mixing in g-space
                        --------------------------------------------------------
                        Smear method:                                FERMI_DIRAC
                        Electronic temperature [K]:                       1000.0
                        Electronic temperature [a.u.]:                  3.17E-03
                        Accuracy threshold:                             1.00E-10
                        --------------------------------------------------------
                        Outer loop SCF in use 
                        No variables optimised in outer loop
                        eps_scf                                         1.00E-06
                        max_scf                                              100
                        Steepest descent optimization
                        step_size                                       5.00E-01

 Number of electrons:                                                        552
 Number of occupied orbitals:                                                276
 Number of molecular orbitals:                                               451

 Number of orbital functions:                                                451
 Number of independent orbital functions:                                    451

 Extrapolation method: initial_guess


 SCF WAVEFUNCTION OPTIMIZATION

  Step     Update method      Time    Convergence         Total energy    Change
  ------------------------------------------------------------------------------
     1 NoMix/Diag. 0.20E+00    1.3     0.31008277     -1662.5297733169 -1.66E+03
     2 Pulay/Diag. 0.20E+00    1.8     0.02783539     -1702.5727935960 -4.00E+01
     3 Pulay/Diag. 0.20E+00    1.8     0.05032689     -1677.8161438589  2.48E+01
     4 Pulay/Diag. 0.20E+00    1.8     0.01524006     -1664.6272261771  1.32E+01
     5 Pulay/Diag. 0.20E+00    1.8     0.00317728     -1663.3205735352  1.31E+00
     6 Pulay/Diag. 0.20E+00    1.8     0.00423261     -1663.2190837846  1.01E-01
     7 Pulay/Diag. 0.20E+00    1.8     0.00232571     -1663.2515303623 -3.24E-02
     8 Pulay/Diag. 0.20E+00    1.8     0.00068330     -1663.2739086467 -2.24E-02
     9 Pulay/Diag. 0.20E+00    1.8     0.00071618     -1663.2715346787  2.37E-03
    10 Pulay/Diag. 0.20E+00    1.8     0.00063846     -1663.2341420169  3.74E-02
    11 Pulay/Diag. 0.20E+00    1.8     0.00027587     -1663.2226355459  1.15E-02
    12 Pulay/Diag. 0.20E+00    1.8     0.00028494     -1663.2096649154  1.30E-02
    13 Pulay/Diag. 0.20E+00    1.8     0.00018983     -1663.1943997634  1.53E-02
    14 Pulay/Diag. 0.20E+00    1.8     0.00010905     -1663.1882686403  6.13E-03
    15 Pulay/Diag. 0.20E+00    1.8     0.00004059     -1663.1866783716  1.59E-03
    16 Pulay/Diag. 0.20E+00    1.8     0.00001993     -1663.1876047959 -9.26E-04
    17 Pulay/Diag. 0.20E+00    1.8     0.00001281     -1663.1872055256  3.99E-04
    18 Pulay/Diag. 0.20E+00    1.8     0.00000727     -1663.1872459779 -4.05E-05
    19 Pulay/Diag. 0.20E+00    1.8     0.00000529     -1663.1871880619  5.79E-05
    20 Pulay/Diag. 0.20E+00    1.8     0.00000375     -1663.1871426044  4.55E-05
    21 Pulay/Diag. 0.20E+00    1.8     0.00000178     -1663.1871533491 -1.07E-05
    22 Pulay/Diag. 0.20E+00    1.8     0.00000069     -1663.1871637605 -1.04E-05
    23 Pulay/Diag. 0.20E+00    1.8     0.00000064     -1663.1871344604  2.93E-05
    24 Pulay/Diag. 0.20E+00    1.8     0.00000061     -1663.1871225400  1.19E-05
    25 Pulay/Diag. 0.20E+00    1.9     0.00000059     -1663.1871281696 -5.63E-06
    26 Pulay/Diag. 0.20E+00    1.8     0.00000054     -1663.1871260584  2.11E-06
    27 Pulay/Diag. 0.20E+00    2.0     0.00000036     -1663.1871173668  8.69E-06
    28 Pulay/Diag. 0.20E+00    2.8     0.00000026     -1663.1871083463  9.02E-06
    29 Pulay/Diag. 0.20E+00    1.8     0.00000028     -1663.1871053429  3.00E-06
    30 Pulay/Diag. 0.20E+00    1.8     0.00000022     -1663.1871016247  3.72E-06
    31 Pulay/Diag. 0.20E+00    1.9     0.00000012     -1663.1870988670  2.76E-06
    32 Pulay/Diag. 0.20E+00    1.8     0.00000009     -1663.1870966513  2.22E-06
    33 Pulay/Diag. 0.20E+00    1.8     0.00000007     -1663.1870954643  1.19E-06
    34 Pulay/Diag. 0.20E+00    1.8     0.00000003     -1663.1870971340 -1.67E-06
    35 Pulay/Diag. 0.20E+00    1.8     0.00000003     -1663.1870958307  1.30E-06
    36 Pulay/Diag. 0.20E+00    1.8     0.00000003     -1663.1870948621  9.69E-07
    37 Pulay/Diag. 0.20E+00    1.8     0.00000003     -1663.1870943604  5.02E-07
    38 Pulay/Diag. 0.20E+00    1.8     0.00000001     -1663.1870939957  3.65E-07
    39 Pulay/Diag. 0.20E+00    1.8     0.00000001     -1663.1870939036  9.20E-08
    40 Pulay/Diag. 0.20E+00    1.8     8.4978E-09     -1663.1870938004  1.03E-07

  *** SCF run converged in    40 steps ***


  Electronic density on regular grids:       -551.9999999995        0.0000000005
  Core density on regular grids:              552.0000000000       -0.0000000000
  Hard and soft densities (Lebedev):           -0.0000000000       -0.0000000000
  Total Rho_soft + Rho1_hard - Rho1_soft     -551.9999999995
  Total charge density (r-space):               0.0000000005
  Total Rho_soft + Rho0_soft (g-space):         0.0000000005

  Overlap energy of the core charge distribution:               0.00000004542016
  Self energy of the core charge distribution:              -2898.30882843202517
  Core Hamiltonian energy:                                    924.08920341463181
  Hartree energy:                                             571.48226748108834
  Exchange-correlation energy:                               -260.42645589205370

  GAPW| Exc from hard and soft atomic rho1:                     0.00000000000000
  GAPW| local Eh = 1 center integrals:                          0.00000000000000
  Electronic entropic energy:                                  -0.02328041740405
  Fermi energy:                                                -0.06283972701349

  Total energy:                                             -1663.18709380041241

  outer SCF iter =    1 RMS gradient =   0.85E-08 energy =      -1663.1870938004
  outer SCF loop converged in   1 iterations or   40 steps


 ENERGY| Total FORCE_EVAL ( QS ) energy (a.u.):            -1663.187093597662169


 -------------------------------------------------------------------------------
 -                                                                             -
 -                                DBCSR STATISTICS                             -
 -                                                                             -
 -------------------------------------------------------------------------------
 COUNTER                                    TOTAL       BLAS       SMM       ACC
 flops     1 x     1 x     3                  240       0.0%    100.0%      0.0%
 flops     1 x     1 x    32                35840       0.0%    100.0%      0.0%
 flops     1 x     9 x     3                51840       0.0%    100.0%      0.0%
 flops     9 x     1 x     3                54000       0.0%    100.0%      0.0%
 flops     1 x     9 x    32              7741440       0.0%    100.0%      0.0%
 flops     9 x     1 x    32              8064000       0.0%    100.0%      0.0%
 flops     9 x     9 x     3             24786000       0.0%    100.0%      0.0%
 flops     9 x     9 x    32           3701376000       0.0%    100.0%      0.0%
 flops inhomo. stacks                           0       0.0%      0.0%      0.0%
 flops total                         3.742109E+09       0.0%    100.0%      0.0%
 flops max/rank                    143.850960E+06       0.0%    100.0%      0.0%
 matmuls inhomo. stacks                         0       0.0%      0.0%      0.0%
 matmuls total                             795000       0.0%    100.0%      0.0%
 number of processed stacks                 32400       0.0%    100.0%      0.0%
 average stack size                                     0.0      24.5       0.0
 marketing flops                     4.613137E+09
 -------------------------------------------------------------------------------
 # multiplications                             40
 max memory usage/rank             301.780992E+06
 # max total images/rank                        5
 # max 3D layers                                1
 # MPI messages exchanged                   52800
 MPI messages size (bytes):
  total size                       781.059840E+06
  min size                           0.000000E+00
  max size                          32.512000E+03
  average size                      14.792800E+03
 MPI breakdown and total messages size (bytes):
             size <=      128               13200                        0
       128 < size <=     8192                2640                  5195520
      8192 < size <=    32768               36960                775864320
     32768 < size <=   131072                   0                        0
    131072 < size <=  4194304                   0                        0
   4194304 < size <= 16777216                   0                        0
  16777216 < size                               0                        0
 -------------------------------------------------------------------------------

 *** WARNING in dbcsr_mm.F:295 :: Using a non-square number of MPI ranks ***
 *** might lead to poor performance. Used ranks: 40 Suggested: 36 81     ***

 -------------------------------------------------------------------------------
 -                                                                             -
 -                      DBCSR MESSAGE PASSING PERFORMANCE                      -
 -                                                                             -
 -------------------------------------------------------------------------------
 ROUTINE             CALLS      AVE VOLUME [Bytes]
 MP_Group               42
 MP_Bcast                9                     12.
 MP_Allreduce          318                     10.
 MP_Alltoall          1132                  26203.
 MP_Wait              2880
 MP_ISend             3120                   8465.
 MP_IRecv             3040                   7470.
 MP_Memory            8400
 -------------------------------------------------------------------------------

 MEMORY| Estimated peak process memory [MiB]                                 365

 -------------------------------------------------------------------------------
 -                                                                             -
 -                         MESSAGE PASSING PERFORMANCE                         -
 -                                                                             -
 -------------------------------------------------------------------------------

 ROUTINE             CALLS      AVE VOLUME [Bytes]
 MP_Group                6
 MP_Bcast              150                2376643.
 MP_Allreduce          759                  88999.
 MP_Sync                47
 MP_Alltoall           655                6253645.
 MP_SendRecv           656                 373248.
 MP_ISendRecv        22425                 706489.
 MP_Wait             22425
 MP_Recv                28                 115456.
 -------------------------------------------------------------------------------


 -------------------------------------------------------------------------------
 -                                                                             -
 -                           R E F E R E N C E S                               -
 -                                                                             -
 -------------------------------------------------------------------------------
 
 CP2K version 7.1, the CP2K developers group (2019).
 CP2K is freely available from https://www.cp2k.org/ .

 Schuett, Ole; Messmer, Peter; Hutter, Juerg; VandeVondele, Joost. 
 Electronic Structure Calculations on Graphics Processing Units, John
 Wiley & Sons, Ltd, 173-190 (2016). 
 GPU-Accelerated Sparse Matrix-Matrix Multiplication for
 Linear Scaling Density Functional Theory.
 https://dx.doi.org/10.1002/9781118670712.ch8

 Borstnik, U; VandeVondele, J; Weber, V; Hutter, J. 
 PARALLEL COMPUTING, 40 (5-6), 47-58 (2014). 
 Sparse matrix multiplication: The distributed block-compressed sparse
 row library.
 https://dx.doi.org/10.1016/j.parco.2014.03.012

 Hutter, J; Iannuzzi, M; Schiffmann, F; VandeVondele, J. 
 WIREs Comput Mol Sci., 4 (1), 15-25 (2014). 
 CP2K: atomistic simulations of condensed matter systems.
 https://dx.doi.org/10.1002/wcms.1159

 Marek, A; Blum, V; Johanni, R; Havu, V; Lang, B; Auckenthaler, T;
 Heinecke, A; Bungartz, H; Lederer, H. 
 Journal of Physics: Condensed Matter, 26 (21), (2014). 
 The ELPA library: scalable parallel eigenvalue solutions for
 electronic structure
 theory and computational science.
 https://dx.doi.org/10.1088/0953-8984/26/21/213201

 VandeVondele, J; Hutter, J. 
 JOURNAL OF CHEMICAL PHYSICS, 127 (11), 114105 (2007). 
 Gaussian basis sets for accurate calculations on molecular systems in
 gas and condensed phases.
 https://dx.doi.org/10.1063/1.2770708

 Krack, M. 
 THEORETICAL CHEMISTRY ACCOUNTS, 114 (1-3), 145-152 (2005). 
 Pseudopotentials for H to Kr optimized for gradient-corrected
 exchange-correlation functionals.
 https://dx.doi.org/10.1007/s00214-005-0655-y

 Frigo, M; Johnson, SG. 
 PROCEEDINGS OF THE IEEE, 93 (2), 216-231 (2005). 
 The design and implementation of FFTW3.
 https://dx.doi.org/10.1109/JPROC.2004.840301

 Lippert, G; Hutter, J; Parrinello, M. 
 THEORETICAL CHEMISTRY ACCOUNTS, 103 (2), 124-140 (1999). 
 The Gaussian and augmented-plane-wave density functional method for ab
 initio molecular dynamics simulations.
 https://dx.doi.org/10.1007/s002140050523

 Krack, M; Parrinello, M. 
 PHYSICAL CHEMISTRY CHEMICAL PHYSICS, 2 (10), 2105-2112 (2000). 
 All-electron ab-initio molecular dynamics.
 https://dx.doi.org/10.1039/b001167n

 Hartwigsen, C; Goedecker, S; Hutter, J. 
 PHYSICAL REVIEW B, 58 (7), 3641-3662 (1998). 
 Relativistic separable dual-space Gaussian pseudopotentials from H to Rn.
 https://dx.doi.org/10.1103/PhysRevB.58.3641

 Perdew, JP; Burke, K; Ernzerhof, M. 
 PHYSICAL REVIEW LETTERS, 77 (18), 3865-3868 (1996). 
 Generalized gradient approximation made simple.
 https://dx.doi.org/10.1103/PhysRevLett.77.3865

 Goedecker, S; Teter, M; Hutter, J. 
 PHYSICAL REVIEW B, 54 (3), 1703-1710 (1996). 
 Separable dual-space Gaussian pseudopotentials.
 https://dx.doi.org/10.1103/PhysRevB.54.1703


 -------------------------------------------------------------------------------
 -                                                                             -
 -                                T I M I N G                                  -
 -                                                                             -
 -------------------------------------------------------------------------------
 SUBROUTINE                       CALLS  ASD         SELF TIME        TOTAL TIME
                                MAXIMUM       AVERAGE  MAXIMUM  AVERAGE  MAXIMUM
 CP2K                                 1  1.0    0.015    0.027   75.097   75.098
 qs_energies                          1  2.0    0.000    0.000   74.833   74.833
 scf_env_do_scf                       1  3.0    0.000    0.000   72.974   72.977
 scf_env_do_scf_inner_loop           40  4.0    0.002    0.004   72.974   72.977
 qs_ks_update_qs_env                 41  5.0    0.000    0.000   42.349   42.823
 rebuild_ks_matrix                   41  6.0    0.000    0.000   42.340   42.814
 qs_ks_build_kohn_sham_matrix        41  7.0    0.006    0.008   42.340   42.814
 rs_pw_transfer                     575  9.5    0.006    0.006   30.105   34.124
 mp_waitall_1                     25305 11.5   15.222   19.989   15.222   19.989
 qs_rho_update_rho                   41  5.0    0.000    0.000   19.124   19.128
 calculate_rho_elec                  41  6.0    5.610    8.943   19.119   19.122
 sum_up_and_integrate                41  8.0    0.039    0.043   15.222   18.789
 integrate_v_rspace                  41  9.0    5.854    9.421   15.183   18.747
 rs_pw_transfer_PW2RS_250            82 11.0    7.504    7.772   14.659   16.932
 rs_pw_transfer_RS2PW_250            83 10.0    5.053    5.192   13.215   15.207
 density_rs2pw                       41  7.0    0.002    0.003   11.822   13.737
 integrate_vhg0_rspace               41  8.0    0.020    0.037    9.246   11.396
 qs_scf_loop_print                   40  5.0    0.240    8.212    8.682    9.405
 potential_pw2rs                     41 10.0    0.006    0.006    9.323    9.325
 pw_transfer                        778  9.2    0.044    0.047    8.726    8.934
 fft_wrap_pw1pw2                    655 10.1    0.005    0.005    8.458    8.665
 prepare_gapw_den                    41  8.0    0.000    0.001    8.285    8.311
 put_rho0_on_grid                    41  9.0    0.062    0.069    8.282    8.309
 fft_wrap_pw1pw2_250                245 10.5    0.716    0.744    7.928    8.147
 qs_vxc_create                       41  8.0    0.001    0.001    7.223    7.223
 xc_vxc_pw_create                    41  9.0    0.144    0.161    7.222    7.223
 fft3d_ps                           655 12.1    4.177    4.525    6.341    6.560
 mp_sync                             47  6.1    6.158    6.320    6.158    6.320
 xc_rho_set_and_dset_create          41 10.0    0.089    0.093    5.472    6.015
 xc_functional_eval                  41 11.0    0.000    0.000    4.148    4.672
 pbe_lda_eval                        41 12.0    4.148    4.672    4.148    4.672
 rs_grid_zero                       329  7.6    3.933    4.026    3.933    4.026
 mp_sum_dm                           41  6.0    2.442    3.219    2.442    3.219
 pw_nn_compose_r                    328 10.5    1.784    1.883    2.562    2.953
 gspace_mixing                       39  5.0    0.058    0.064    2.763    2.764
 mp_isendrecv_dv                  22425 11.5    1.356    2.556    1.356    2.556
 -------------------------------------------------------------------------------

 The number of warnings for this run is : 2
 
 -------------------------------------------------------------------------------
  **** **** ******  **  PROGRAM ENDED AT                 2022-12-13 00:52:01.285
 ***** ** ***  *** **   PROGRAM RAN ON                             node-c12h-001
 **    ****   ******    PROGRAM RAN BY                                   mmm0666
 ***** **    ** ** **   PROGRAM PROCESS ID                                 37057
  **** **  *******  **  PROGRAM STOPPED IN /lustre/home/mmm0666/cp2k_ksprint/he_
                                           grid/He19
