 DBCSR| CPU Multiplication driver                                           BLAS
 DBCSR| Multrec recursion limit                                              512
 DBCSR| Multiplication stack size                                           1000
 DBCSR| Maximum elements for images                                    UNLIMITED
 DBCSR| Multiplicative factor virtual images                                   1
 DBCSR| Use multiplication densification                                       T
 DBCSR| Multiplication size stacks                                             3
 DBCSR| Use memory pool for CPU allocation                                     F
 DBCSR| Number of 3D layers                                               SINGLE
 DBCSR| Use MPI memory allocation                                              F
 DBCSR| Use RMA algorithm                                                      F
 DBCSR| Use Communication thread                                               T
 DBCSR| Communication thread load                                             87
 DBCSR| MPI: My node id                                                        0
 DBCSR| MPI: Number of nodes                                                   1
 DBCSR| OMP: Current number of threads                                         1
 DBCSR| OMP: Max number of threads                                             1
 DBCSR| Split modifier for TAS multiplication algorithm                  1.0E+00


  **** **** ******  **  PROGRAM STARTED AT               2022-11-25 15:43:59.770
 ***** ** ***  *** **   PROGRAM STARTED ON                          nmscde007193
 **    ****   ******    PROGRAM STARTED BY                             alejandro
 ***** **    ** ** **   PROGRAM PROCESS ID                               4169699
  **** **  *******  **  PROGRAM STARTED IN /home/alejandro/Calculations/cp2k_cal
                                           culations/gold_surface/he_gold

 CP2K| version string:                                          CP2K version 9.1
 CP2K| source code revision number:                                  git:d8d7100
 CP2K| cp2kflags: omp libint fftw3 libxc elpa parallel mpi3 scalapack spglib    
 CP2K| is freely available from                            https://www.cp2k.org/
 CP2K| Program compiled at                          Sun Jan  9 17:14:22 UTC 2022
 CP2K| Program compiled on                                       lcy02-amd64-025
 CP2K| Program compiled for                                Linux-x86_64-gfortran
 CP2K| Data directory path                                       /usr/share/cp2k
 CP2K| Input file name                                                 input.inp

 GLOBAL| Force Environment number                                              1
 GLOBAL| Basis set file name                                        BASIS_MOLOPT
 GLOBAL| Potential file name                                      GTH_POTENTIALS
 GLOBAL| MM Potential file name                                     MM_POTENTIAL
 GLOBAL| Coordinate file name                                            mol.xyz
 GLOBAL| Method name                                                        CP2K
 GLOBAL| Project name                                                        mol
 GLOBAL| Run type                                                         ENERGY
 GLOBAL| FFT library                                                       FFTW3
 GLOBAL| Diagonalization library                                            ELPA
 GLOBAL| Minimum number of eigenvectors for ELPA usage                        16
 GLOBAL| Orthonormality check for eigenvectors                          DISABLED
 GLOBAL| Matrix multiplication library                                 ScaLAPACK
 GLOBAL| All-to-all communication in single precision                          F
 GLOBAL| FFTs using library dependent lengths                                  T
 GLOBAL| Grid backend                                                       AUTO
 GLOBAL| Global print level                                                  LOW
 GLOBAL| MPI I/O enabled                                                       T
 GLOBAL| Total number of message passing processes                             1
 GLOBAL| Number of threads for this process                                    1
 GLOBAL| This output is from process                                           0
 GLOBAL| Stack size for threads created by OpenMP (OMP_STACKSIZE)        default
 GLOBAL| CPU model name                  Intel(R) Core(TM) i9-9900 CPU @ 3.10GHz

 MEMORY| system memory details [Kb]
 MEMORY|                        rank 0           min           max       average
 MEMORY| MemTotal             32645240      32645240      32645240      32645240
 MEMORY| MemFree              18199520      18199520      18199520      18199520
 MEMORY| Buffers               1239916       1239916       1239916       1239916
 MEMORY| Cached                7504904       7504904       7504904       7504904
 MEMORY| Slab                  2355052       2355052       2355052       2355052
 MEMORY| SReclaimable          2022428       2022428       2022428       2022428
 MEMORY| MemLikelyFree        28966768      28966768      28966768      28966768


 GENERATE|  Preliminary Number of Bonds generated:                             0
 GENERATE|  Achieved consistency in connectivity generation.

 *******************************************************************************
 *******************************************************************************
 **                                                                           **
 **     #####                         ##              ##                      **
 **    ##   ##            ##          ##              ##                      **
 **   ##     ##                       ##            ######                    **
 **   ##     ##  ##   ##  ##   #####  ##  ##   ####   ##    #####    #####    **
 **   ##     ##  ##   ##  ##  ##      ## ##   ##      ##   ##   ##  ##   ##   **
 **   ##  ## ##  ##   ##  ##  ##      ####     ###    ##   ######   ######    **
 **    ##  ###   ##   ##  ##  ##      ## ##      ##   ##   ##       ##        **
 **     #######   #####   ##   #####  ##  ##  ####    ##    #####   ##        **
 **           ##                                                    ##        **
 **                                                                           **
 **                                                ... make the atoms dance   **
 **                                                                           **
 **            Copyright (C) by CP2K developers group (2000-2021)             **
 **                      J. Chem. Phys. 152, 194103 (2020)                    **
 **                                                                           **
 *******************************************************************************


 TOTAL NUMBERS AND MAXIMUM NUMBERS

  Total number of            - Atomic kinds:                                   2
                             - Atoms:                                         13
                             - Shell sets:                                    13
                             - Shells:                                        85
                             - Primitive Cartesian functions:                 62
                             - Cartesian basis functions:                    361
                             - Spherical basis functions:                    301

  Maximum angular momentum of- Orbital basis functions:                        3
                             - Local part of the GTH pseudopotential:          2
                             - Non-local part of the GTH pseudopotential:      4


 SCF PARAMETERS         Density guess:                                   RESTART
                        --------------------------------------------------------
                        max_scf:                                            2000
                        max_scf_history:                                       0
                        max_diis:                                              4
                        --------------------------------------------------------
                        eps_scf:                                        1.00E-08
                        eps_scf_history:                                0.00E+00
                        eps_diis:                                       1.00E-01
                        eps_eigval:                                     1.00E-05
                        --------------------------------------------------------
                        level_shift [a.u.]:                                 0.00
                        added MOs                                       234    0
                        --------------------------------------------------------
                        Mixing method:                            BROYDEN_MIXING
                                                charge density mixing in g-space
                        --------------------------------------------------------
                        Smear method:                                FERMI_DIRAC
                        Electronic temperature [K]:                          5.0
                        Electronic temperature [a.u.]:                  1.58E-05
                        Accuracy threshold:                             1.00E-10
                        --------------------------------------------------------
                        Outer loop SCF in use 
                        No variables optimised in outer loop
                        eps_scf                                         1.00E-04
                        max_scf                                              500
                        No outer loop optimization
                        step_size                                       5.00E-01

 Number of electrons:                                                        134
 Number of occupied orbitals:                                                 67
 Number of molecular orbitals:                                               301

 Number of orbital functions:                                                301
 Number of independent orbital functions:                                    301

 Extrapolation method: initial_guess


 SCF WAVEFUNCTION OPTIMIZATION

  Step     Update method      Time    Convergence         Total energy    Change
  ------------------------------------------------------------------------------
     1 NoMix/Diag. 0.20E+00    3.5     0.00000719      -329.9925495326 -3.30E+02
     2 Broy./Diag. 0.20E+00    6.2     0.00038554      -329.9925691287 -1.96E-05
     3 Broy./Diag. 0.20E+00    6.3     0.00049036      -329.9924544206  1.15E-04
     4 Broy./Diag. 0.20E+00    6.3     0.00094527      -329.9926207308 -1.66E-04
     5 Broy./Diag. 0.20E+00    6.3     0.00100913      -329.9923553507  2.65E-04
     6 Broy./Diag. 0.20E+00    6.4     0.00018587      -329.9926050099 -2.50E-04
     7 Broy./Diag. 0.20E+00    6.4     0.00019160      -329.9925650762  3.99E-05
     8 Broy./Diag. 0.20E+00    6.3     0.00019388      -329.9925706052 -5.53E-06
     9 Broy./Diag. 0.20E+00    6.3     0.00024382      -329.9925544499  1.62E-05
    10 Broy./Diag. 0.20E+00    6.3     0.00027006      -329.9926434727 -8.90E-05
    11 Broy./Diag. 0.20E+00    6.4     0.00013255      -329.9925415016  1.02E-04
    12 Broy./Diag. 0.20E+00    6.3     0.00013159      -329.9925891114 -4.76E-05
    13 Broy./Diag. 0.20E+00    6.4     0.00005209      -329.9925627819  2.63E-05
    14 Broy./Diag. 0.20E+00    6.6     0.00006631      -329.9925696659 -6.88E-06
    15 Broy./Diag. 0.20E+00    6.7     0.00002613      -329.9925657618  3.90E-06
    16 Broy./Diag. 0.20E+00    6.5     0.00001526      -329.9925703866 -4.62E-06
    17 Broy./Diag. 0.20E+00    6.4     0.00001095      -329.9925645660  5.82E-06
    18 Broy./Diag. 0.20E+00    6.5     0.00000827      -329.9925697857 -5.22E-06
    19 Broy./Diag. 0.20E+00    6.4     0.00000559      -329.9925672453  2.54E-06
    20 Broy./Diag. 0.20E+00    6.4     0.00000279      -329.9925680829 -8.38E-07
    21 Broy./Diag. 0.20E+00    6.3     0.00000242      -329.9925680501  3.28E-08
    22 Broy./Diag. 0.20E+00    6.3     0.00000110      -329.9925682534 -2.03E-07
    23 Broy./Diag. 0.20E+00    6.3     0.00000064      -329.9925679146  3.39E-07
    24 Broy./Diag. 0.20E+00    6.3     0.00000045      -329.9925681858 -2.71E-07
    25 Broy./Diag. 0.20E+00    6.4     0.00000033      -329.9925680066  1.79E-07
    26 Broy./Diag. 0.20E+00    6.3     0.00000017      -329.9925680870 -8.04E-08
    27 Broy./Diag. 0.20E+00    6.3     0.00000011      -329.9925680746  1.24E-08
    28 Broy./Diag. 0.20E+00    6.3     0.00000008      -329.9925680706  4.03E-09
    29 Broy./Diag. 0.20E+00    6.3     0.00000004      -329.9925680591  1.14E-08
    30 Broy./Diag. 0.20E+00    6.3     0.00000002      -329.9925680738 -1.47E-08
    31 Broy./Diag. 0.20E+00    6.4     0.00000002      -329.9925680643  9.44E-09
    32 Broy./Diag. 0.20E+00    6.4     0.00000001      -329.9925680714 -7.07E-09
    33 Broy./Diag. 0.20E+00    6.3     6.7560E-09      -329.9925680680  3.42E-09

  *** SCF run converged in    33 steps ***


  Electronic density on regular grids:       -134.0000000000        0.0000000000
  Core density on regular grids:              134.0000000000       -0.0000000000
  Hard and soft densities (Lebedev):           -0.0000000000       -0.0000000000
  Total Rho_soft + Rho1_hard - Rho1_soft     -134.0000000000
  Total charge density (r-space):              -0.0000000000
  Total Rho_soft + Rho0_soft (g-space):        -0.0000000000

  Overlap energy of the core charge distribution:              19.87423056827951
  Self energy of the core charge distribution:               -699.88195965864895
  Core Hamiltonian energy:                                    252.36059403959379
  Hartree energy:                                             164.08299430900445
  Exchange-correlation energy:                                -66.20877664868618
  Dispersion energy:                                           -0.21963214381167

  GAPW| Exc from hard and soft atomic rho1:                     0.00000000000000
  GAPW| local Eh = 1 center integrals:                          0.00000000000000
  Electronic entropic energy:                                  -0.00001853372695
  Fermi energy:                                                -0.03010664024149

  Total energy:                                              -329.99256806799644

  outer SCF iter =    1 RMS gradient =   0.68E-08 energy =       -329.9925680680
  outer SCF loop converged in   1 iterations or   33 steps


 ENERGY| Total FORCE_EVAL ( QS ) energy [a.u.]:             -329.992568067996444

 -------------------------------------------------------------------------------
 -                                                                             -
 -                                DBCSR STATISTICS                             -
 -                                                                             -
 -------------------------------------------------------------------------------
 COUNTER                                    TOTAL       BLAS       SMM       ACC
 flops     1 x    13 x     1                   26     100.0%      0.0%      0.0%
 flops     1 x    32 x     1                  576     100.0%      0.0%      0.0%
 flops     1 x    13 x    25                 7800     100.0%      0.0%      0.0%
 flops    25 x    13 x     1                 7800     100.0%      0.0%      0.0%
 flops     1 x     1 x   301                20468     100.0%      0.0%      0.0%
 flops     1 x    32 x    25               172800     100.0%      0.0%      0.0%
 flops    25 x    32 x     1               172800     100.0%      0.0%      0.0%
 flops    25 x    13 x    25              2340000     100.0%      0.0%      0.0%
 flops     1 x    25 x   301              3070200     100.0%      0.0%      0.0%
 flops    25 x     1 x   301              3070200     100.0%      0.0%      0.0%
 flops    25 x    32 x    25             51840000     100.0%      0.0%      0.0%
 flops    25 x    25 x   301            997815000     100.0%      0.0%      0.0%
 flops inhomo. stacks                           0       0.0%      0.0%      0.0%
 flops total                         1.058518E+09     100.0%      0.0%      0.0%
 flops max/rank                      1.058518E+09     100.0%      0.0%      0.0%
 matmuls inhomo. stacks                         0       0.0%      0.0%      0.0%
 matmuls total                               4784     100.0%      0.0%      0.0%
 number of processed stacks                   145     100.0%      0.0%      0.0%
 average stack size                                    33.0       0.0       0.0
 marketing flops                   473.480608E+06
 -------------------------------------------------------------------------------
 # multiplications                             35
 max memory usage/rank               1.389855E+09
 # max total images/rank                        1
 # max 3D layers                                1
 # MPI messages exchanged                       0
 -------------------------------------------------------------------------------
 -                                                                             -
 -                      DBCSR MESSAGE PASSING PERFORMANCE                      -
 -                                                                             -
 -------------------------------------------------------------------------------
 ROUTINE             CALLS      AVE VOLUME [Bytes]
 MP_Bcast               13                     12.
 MP_Allreduce          282                     10.
 MP_Alltoall           973                 417991.
 MP_ISend              140                   2611.
 MP_IRecv              140                   2611.
 -------------------------------------------------------------------------------

 -------------------------------------------------------------------------------
 -                                                                             -
 -                                GRID STATISTICS                              -
 -                                                                             -
 -------------------------------------------------------------------------------
 LP    KERNEL             BACKEND                              COUNT     PERCENT
 6     collocate general  REF                                 477598      50.32%
 6     integrate general  REF                                 463551      48.84%
 3     collocate general  REF                                   3672       0.39%
 3     integrate general  REF                                   3564       0.38%
 0     collocate general  REF                                    353       0.04%
 0     integrate general  REF                                    330       0.03%
 -------------------------------------------------------------------------------

 MEMORY| Estimated peak process memory [MiB]                                1326

 -------------------------------------------------------------------------------
 -                                                                             -
 -                         MESSAGE PASSING PERFORMANCE                         -
 -                                                                             -
 -------------------------------------------------------------------------------

 ROUTINE             CALLS      AVE VOLUME [Bytes]
 MP_Group                5
 MP_Bcast              383                   5288.
 MP_Allreduce          604                   2415.
 MP_Sync                39
 -------------------------------------------------------------------------------


 -------------------------------------------------------------------------------
 -                                                                             -
 -                           R E F E R E N C E S                               -
 -                                                                             -
 -------------------------------------------------------------------------------
 
 CP2K version 9.1, the CP2K developers group (2021).
 CP2K is freely available from https://www.cp2k.org/ .

 Kuehne,Thomas D.; Iannuzzi,Marcella; Del Ben,Mauro;
 Rybkin,Vladimir V.; Seewald,Patrick; Stein,Frederick; Laino,Teodoro;
 Khaliullin,Rustam Z.; Schuett,Ole; Schiffmann,Florian; Golze,Dorothea;
 Wilhelm,Jan; Chulkov,Sergey; Bani-Hashemian,Mohammad Hossein;
 Weber,Valery; Borstnik,Urban; Taillefumier,Mathieu;
 Jakobovits,Alice Shoshana; Lazzaro,Alfio; Pabst,Hans; Mueller,Tiziano;
 Schade,Robert; Guidon,Manuel; Andermatt,Samuel; Holmberg,Nico;
 Schenter,Gregory K.; Hehn,Anna; Bussy,Augustin; Belleflamme,Fabian;
 Tabacchi,Gloria; Gloess,Andreas; Lass,Michael; Bethune,Iain;
 Mundy,Christopher J.; Plessl,Christian; Watkins,Matt;
 VandeVondele,Joost; Krack,Matthias; Hutter,Juerg. 
 The Journal of Chemical Physics, 152 (19), (2020). 
 CP2K: An electronic structure and molecular dynamics software package -
 Quickstep: Efficient and accurate electronic structure calculations.
 https://doi.org/10.1063/5.0007045

 Goerigk, Lars; Hansen, Andreas; Bauer, Christoph; Ehrlich, Stephan;
 Najibi, Asim; Grimme, Stefan. , 19 (48), (2017). 
 A look at the density functional theory zoo with the advanced GMTKN55 database
 for general main group thermochemistry, kinetics and noncovalent interactions.
 https://doi.org/10.1039/C7CP04913G

 Schuett, Ole; Messmer, Peter; Hutter, Juerg; VandeVondele, Joost. 
 Electronic Structure Calculations on Graphics Processing Units, John
 Wiley & Sons, Ltd, 173-190 (2016). 
 GPU-Accelerated Sparse Matrix-Matrix Multiplication for
 Linear Scaling Density Functional Theory.
 https://doi.org/10.1002/9781118670712.ch8

 Borstnik, U; VandeVondele, J; Weber, V; Hutter, J. 
 PARALLEL COMPUTING, 40 (5-6), 47-58 (2014). 
 Sparse matrix multiplication: The distributed block-compressed sparse
 row library.
 https://doi.org/10.1016/j.parco.2014.03.012

 Hutter, J; Iannuzzi, M; Schiffmann, F; VandeVondele, J. 
 WIREs Comput Mol Sci., 4 (1), 15-25 (2014). 
 CP2K: atomistic simulations of condensed matter systems.
 https://doi.org/10.1002/wcms.1159

 Marek, A; Blum, V; Johanni, R; Havu, V; Lang, B; Auckenthaler, T;
 Heinecke, A; Bungartz, H; Lederer, H. 
 Journal of Physics: Condensed Matter, 26 (21), (2014). 
 The ELPA library: scalable parallel eigenvalue solutions for
 electronic structure
 theory and computational science.
 https://doi.org/10.1088/0953-8984/26/21/213201

 Grimme, S; Ehrlich, S; Goerigk, L. 
 JOURNAL OF COMPUTATIONAL CHEMISTRY, 32, 1456 (2011). 
 Effect of the damping function in dispersion corrected density functional theory.
 https://doi.org/10.1002/jcc.21759

 Grimme, S; Antony, J; Ehrlich, S; Krieg, H. 
 JOURNAL OF CHEMICAL PHYSICS, 132 (15), 154104 (2010). 
 A consistent and accurate ab initio parametrization of density
 functional dispersion correction (DFT-D) for the 94 elements H-Pu.
 https://doi.org/10.1063/1.3382344

 VandeVondele, J; Hutter, J. 
 JOURNAL OF CHEMICAL PHYSICS, 127 (11), 114105 (2007). 
 Gaussian basis sets for accurate calculations on molecular systems in
 gas and condensed phases.
 https://doi.org/10.1063/1.2770708

 Krack, M. 
 THEORETICAL CHEMISTRY ACCOUNTS, 114 (1-3), 145-152 (2005). 
 Pseudopotentials for H to Kr optimized for gradient-corrected
 exchange-correlation functionals.
 https://doi.org/10.1007/s00214-005-0655-y

 Frigo, M; Johnson, SG. 
 PROCEEDINGS OF THE IEEE, 93 (2), 216-231 (2005). 
 The design and implementation of FFTW3.
 https://doi.org/10.1109/JPROC.2004.840301

 Lippert, G; Hutter, J; Parrinello, M. 
 THEORETICAL CHEMISTRY ACCOUNTS, 103 (2), 124-140 (1999). 
 The Gaussian and augmented-plane-wave density functional method for ab
 initio molecular dynamics simulations.
 https://doi.org/10.1007/s002140050523

 Krack, M; Parrinello, M. 
 PHYSICAL CHEMISTRY CHEMICAL PHYSICS, 2 (10), 2105-2112 (2000). 
 All-electron ab-initio molecular dynamics.
 https://doi.org/10.1039/b001167n

 Hartwigsen, C; Goedecker, S; Hutter, J. 
 PHYSICAL REVIEW B, 58 (7), 3641-3662 (1998). 
 Relativistic separable dual-space Gaussian pseudopotentials from H to Rn.
 https://doi.org/10.1103/PhysRevB.58.3641

 Perdew, JP; Burke, K; Ernzerhof, M. 
 PHYSICAL REVIEW LETTERS, 77 (18), 3865-3868 (1996). 
 Generalized gradient approximation made simple.
 https://doi.org/10.1103/PhysRevLett.77.3865

 Goedecker, S; Teter, M; Hutter, J. 
 PHYSICAL REVIEW B, 54 (3), 1703-1710 (1996). 
 Separable dual-space Gaussian pseudopotentials.
 https://doi.org/10.1103/PhysRevB.54.1703


 -------------------------------------------------------------------------------
 -                                                                             -
 -                                T I M I N G                                  -
 -                                                                             -
 -------------------------------------------------------------------------------
 SUBROUTINE                       CALLS  ASD         SELF TIME        TOTAL TIME
                                MAXIMUM       AVERAGE  MAXIMUM  AVERAGE  MAXIMUM
 CP2K                                 1  1.0    0.023    0.023  214.888  214.888
 qs_energies                          1  2.0    0.000    0.000  214.419  214.419
 scf_env_do_scf                       1  3.0    0.000    0.000  210.228  210.228
 scf_env_do_scf_inner_loop           33  4.0    0.002    0.002  210.227  210.227
 qs_ks_update_qs_env                 33  5.0    0.000    0.000  111.236  111.236
 rebuild_ks_matrix                   33  6.0    0.000    0.000  111.230  111.230
 qs_ks_build_kohn_sham_matrix        33  7.0    0.003    0.003  111.230  111.230
 qs_rho_update_rho                   34  5.0    0.000    0.000   93.176   93.176
 calculate_rho_elec                  34  6.0    0.291    0.291   93.105   93.105
 sum_up_and_integrate                33  8.0    0.074    0.074   86.975   86.975
 integrate_v_rspace                  33  9.0    0.003    0.003   86.901   86.901
 grid_collocate_task_list            34  7.0   85.566   85.566   85.566   85.566
 grid_integrate_task_list            33 10.0   82.727   82.727   82.727   82.727
 pw_transfer                        567  9.1    0.019    0.019   19.469   19.469
 fft_wrap_pw1pw2                    468 10.1    0.002    0.002   19.096   19.096
 fft_wrap_pw1pw2_250                200 10.5    1.527    1.527   17.943   17.943
 qs_vxc_create                       33  8.0    0.000    0.000   15.361   15.361
 xc_vxc_pw_create                    33  9.0    0.894    0.894   15.361   15.361
 xc_rho_set_and_dset_create          33 10.0    0.148    0.148   12.428   12.428
 fft3d_s                            469 12.0   10.254   10.254   10.265   10.265
 xc_functional_eval                  33 11.0    0.000    0.000   10.102   10.102
 pbe_lda_eval                        33 12.0   10.102   10.102   10.102   10.102
 density_rs2pw                       34  7.0    0.001    0.001    7.249    7.249
 gspace_mixing                       32  5.0    0.271    0.271    6.615    6.615
 pw_gather_s                        237 11.7    4.690    4.690    4.690    4.690
 -------------------------------------------------------------------------------

 The number of warnings for this run is : 0
 
 -------------------------------------------------------------------------------
  **** **** ******  **  PROGRAM ENDED AT                 2022-11-25 15:47:35.095
 ***** ** ***  *** **   PROGRAM RAN ON                              nmscde007193
 **    ****   ******    PROGRAM RAN BY                                 alejandro
 ***** **    ** ** **   PROGRAM PROCESS ID                               4169699
  **** **  *******  **  PROGRAM STOPPED IN /home/alejandro/Calculations/cp2k_cal
                                           culations/gold_surface/he_gold
