 DBCSR| CPU Multiplication driver                                           XSMM
 DBCSR| Multrec recursion limit                                              512
 DBCSR| Multiplication stack size                                           1000
 DBCSR| Maximum elements for images                                    UNLIMITED
 DBCSR| Multiplicative factor virtual images                                   1
 DBCSR| Use multiplication densification                                       T
 DBCSR| Multiplication size stacks                                             3
 DBCSR| Number of 3D layers                                               SINGLE
 DBCSR| Use MPI memory allocation                                              T
 DBCSR| Use RMA algorithm                                                      F
 DBCSR| Use Communication thread                                               T
 DBCSR| Communication thread load                                             87


  **** **** ******  **  PROGRAM STARTED AT               2022-12-12 19:44:42.749
 ***** ** ***  *** **   PROGRAM STARTED ON                         node-c12f-002
 **    ****   ******    PROGRAM STARTED BY                               mmm0666
 ***** **    ** ** **   PROGRAM PROCESS ID                                 32239
  **** **  *******  **  PROGRAM STARTED IN /lustre/home/mmm0666/cp2k_ksprint/he_
                                           grid/He9

 CP2K| version string:                                          CP2K version 7.1
 CP2K| source code revision number:                                  git:e635599
 CP2K| cp2kflags: libint fftw3 libxc elpa parallel mpi3 scalapack quip xsmm spgl
 CP2K|            ib
 CP2K| is freely available from                            https://www.cp2k.org/
 CP2K| Program compiled at                          Wed  8 Jan 12:34:35 GMT 2020
 CP2K| Program compiled on                                               login01
 CP2K| Program compiled for                                                local
 CP2K| Data directory path     /shared/ucl/apps/cp2k/7.1/gnu-4.9.2/cp2k-7.1/data
 CP2K| Input file name                                                 input.inp

 GLOBAL| Force Environment number                                              1
 GLOBAL| Basis set file name            /shared/ucl/apps/cp2k/7.1/gnu-4.9.2/cp2k
 GLOBAL| Potential file name            /shared/ucl/apps/cp2k/7.1/gnu-4.9.2/cp2k
 GLOBAL| MM Potential file name                                     MM_POTENTIAL
 GLOBAL| Coordinate file name                                            mol.xyz
 GLOBAL| Method name                                                        CP2K
 GLOBAL| Project name                                                       Gold
 GLOBAL| Preferred FFT library                                             FFTW3
 GLOBAL| Preferred diagonalization lib.                                     ELPA
 GLOBAL| Run type                                                         ENERGY
 GLOBAL| All-to-all communication in single precision                          F
 GLOBAL| FFTs using library dependent lengths                                  F
 GLOBAL| Global print level                                                  LOW
 GLOBAL| MPI I/O enabled                                                       T
 GLOBAL| Total number of message passing processes                            40
 GLOBAL| Number of threads for this process                                    1
 GLOBAL| This output is from process                                           0
 GLOBAL| CPU model name                 Intel(R) Xeon(R) Gold 6248 CPU @ 2.50GHz
 GLOBAL| CPUID                                                              1003

 MEMORY| system memory details [Kb]
 MEMORY|                        rank 0           min           max       average
 MEMORY| MemTotal            197730148     197730148     197730148     197730148
 MEMORY| MemFree             176090144     176090144     176090144     176090144
 MEMORY| Buffers                     0             0             0             0
 MEMORY| Cached               13717056      13717056      13717056      13717056
 MEMORY| Slab                  1195368       1195368       1195368       1195368
 MEMORY| SReclaimable           244540        244540        244540        244540
 MEMORY| MemLikelyFree       190051740     190051740     190051740     190051740


 GENERATE|  Preliminary Number of Bonds generated:                             0
 GENERATE|  Achieved consistency in connectivity generation.

 *******************************************************************************
 *******************************************************************************
 **                                                                           **
 **     #####                         ##              ##                      **
 **    ##   ##            ##          ##              ##                      **
 **   ##     ##                       ##            ######                    **
 **   ##     ##  ##   ##  ##   #####  ##  ##   ####   ##    #####    #####    **
 **   ##     ##  ##   ##  ##  ##      ## ##   ##      ##   ##   ##  ##   ##   **
 **   ##  ## ##  ##   ##  ##  ##      ####     ###    ##   ######   ######    **
 **    ##  ###   ##   ##  ##  ##      ## ##      ##   ##   ##       ##        **
 **     #######   #####   ##   #####  ##  ##  ####    ##    #####   ##        **
 **           ##                                                    ##        **
 **                                                                           **
 **                                                ... make the atoms dance   **
 **                                                                           **
 **            Copyright (C) by CP2K developers group (2000 - 2019)           **
 **                                                                           **
 *******************************************************************************

 *** WARNING in qs_environment.F:1310 :: More added MOs requested than ***
 *** available. The full set of unoccupied MOs will be used.           ***



 TOTAL NUMBERS AND MAXIMUM NUMBERS

  Total number of            - Atomic kinds:                                   2
                             - Atoms:                                         51
                             - Shell sets:                                    51
                             - Shells:                                       151
                             - Primitive Cartesian functions:                252
                             - Cartesian basis functions:                    501
                             - Spherical basis functions:                    451

  Maximum angular momentum of- Orbital basis functions:                        2
                             - Local part of the GTH pseudopotential:          2
                             - Non-local part of the GTH pseudopotential:      4


 SCF PARAMETERS         Density guess:                                    ATOMIC
                        --------------------------------------------------------
                        max_scf:                                             100
                        max_scf_history:                                       0
                        max_diis:                                              4
                        --------------------------------------------------------
                        eps_scf:                                        1.00E-08
                        eps_scf_history:                                0.00E+00
                        eps_diis:                                       1.00E-01
                        eps_eigval:                                     1.00E-05
                        --------------------------------------------------------
                        level_shift [a.u.]:                                 0.00
                        added MOs                                       175    0
                        --------------------------------------------------------
                        Mixing method:                              PULAY_MIXING
                                                charge density mixing in g-space
                        --------------------------------------------------------
                        Smear method:                                FERMI_DIRAC
                        Electronic temperature [K]:                       1000.0
                        Electronic temperature [a.u.]:                  3.17E-03
                        Accuracy threshold:                             1.00E-10
                        --------------------------------------------------------
                        Outer loop SCF in use 
                        No variables optimised in outer loop
                        eps_scf                                         1.00E-06
                        max_scf                                              100
                        Steepest descent optimization
                        step_size                                       5.00E-01

 Number of electrons:                                                        552
 Number of occupied orbitals:                                                276
 Number of molecular orbitals:                                               451

 Number of orbital functions:                                                451
 Number of independent orbital functions:                                    451

 Extrapolation method: initial_guess


 SCF WAVEFUNCTION OPTIMIZATION

  Step     Update method      Time    Convergence         Total energy    Change
  ------------------------------------------------------------------------------
     1 NoMix/Diag. 0.20E+00    1.3     0.31010171     -1662.5297687657 -1.66E+03
     2 Pulay/Diag. 0.20E+00    1.7     0.02784062     -1702.5727857195 -4.00E+01
     3 Pulay/Diag. 0.20E+00    1.8     0.05018244     -1677.8161985052  2.48E+01
     4 Pulay/Diag. 0.20E+00    1.8     0.01523359     -1664.6272051964  1.32E+01
     5 Pulay/Diag. 0.20E+00    1.8     0.00279829     -1663.3203150361  1.31E+00
     6 Pulay/Diag. 0.20E+00    1.8     0.00376910     -1663.2194000495  1.01E-01
     7 Pulay/Diag. 0.20E+00    1.8     0.00224052     -1663.2516480475 -3.22E-02
     8 Pulay/Diag. 0.20E+00    1.8     0.00070457     -1663.2742526119 -2.26E-02
     9 Pulay/Diag. 0.20E+00    1.8     0.00066599     -1663.2708315725  3.42E-03
    10 Pulay/Diag. 0.20E+00    1.9     0.00067927     -1663.2334412257  3.74E-02
    11 Pulay/Diag. 0.20E+00    1.9     0.00026803     -1663.2225468365  1.09E-02
    12 Pulay/Diag. 0.20E+00    1.8     0.00024849     -1663.2095255215  1.30E-02
    13 Pulay/Diag. 0.20E+00    1.8     0.00022496     -1663.1939229356  1.56E-02
    14 Pulay/Diag. 0.20E+00    1.9     0.00010360     -1663.1881936711  5.73E-03
    15 Pulay/Diag. 0.20E+00    1.8     0.00003705     -1663.1866950426  1.50E-03
    16 Pulay/Diag. 0.20E+00    1.8     0.00001961     -1663.1876043946 -9.09E-04
    17 Pulay/Diag. 0.20E+00    1.8     0.00001317     -1663.1871890854  4.15E-04
    18 Pulay/Diag. 0.20E+00    1.8     0.00000579     -1663.1872412586 -5.22E-05
    19 Pulay/Diag. 0.20E+00    1.9     0.00000539     -1663.1871708685  7.04E-05
    20 Pulay/Diag. 0.20E+00    1.8     0.00000362     -1663.1871298227  4.10E-05
    21 Pulay/Diag. 0.20E+00    1.8     0.00000148     -1663.1871414196 -1.16E-05
    22 Pulay/Diag. 0.20E+00    1.8     0.00000069     -1663.1871511405 -9.72E-06
    23 Pulay/Diag. 0.20E+00    1.9     0.00000059     -1663.1871205982  3.05E-05
    24 Pulay/Diag. 0.20E+00    1.8     0.00000058     -1663.1871094036  1.12E-05
    25 Pulay/Diag. 0.20E+00    1.8     0.00000057     -1663.1871156126 -6.21E-06
    26 Pulay/Diag. 0.20E+00    1.8     0.00000053     -1663.1871125039  3.11E-06
    27 Pulay/Diag. 0.20E+00    1.8     0.00000037     -1663.1871046038  7.90E-06
    28 Pulay/Diag. 0.20E+00    1.8     0.00000031     -1663.1870953632  9.24E-06
    29 Pulay/Diag. 0.20E+00    1.8     0.00000030     -1663.1870916898  3.67E-06
    30 Pulay/Diag. 0.20E+00    1.8     0.00000026     -1663.1870874518  4.24E-06
    31 Pulay/Diag. 0.20E+00    1.8     0.00000011     -1663.1870848874  2.56E-06
    32 Pulay/Diag. 0.20E+00    1.8     0.00000008     -1663.1870826498  2.24E-06
    33 Pulay/Diag. 0.20E+00    2.0     0.00000007     -1663.1870814970  1.15E-06
    34 Pulay/Diag. 0.20E+00    1.8     0.00000003     -1663.1870831401 -1.64E-06
    35 Pulay/Diag. 0.20E+00    1.9     0.00000002     -1663.1870818631  1.28E-06
    36 Pulay/Diag. 0.20E+00    1.8     0.00000004     -1663.1870809317  9.31E-07
    37 Pulay/Diag. 0.20E+00    1.8     0.00000003     -1663.1870803176  6.14E-07
    38 Pulay/Diag. 0.20E+00    1.8     0.00000001     -1663.1870800179  3.00E-07
    39 Pulay/Diag. 0.20E+00    1.8     9.8372E-09     -1663.1870799375  8.04E-08

  *** SCF run converged in    39 steps ***


  Electronic density on regular grids:       -551.9999999995        0.0000000005
  Core density on regular grids:              552.0000000000       -0.0000000000
  Hard and soft densities (Lebedev):           -0.0000000000       -0.0000000000
  Total Rho_soft + Rho1_hard - Rho1_soft     -551.9999999995
  Total charge density (r-space):               0.0000000005
  Total Rho_soft + Rho0_soft (g-space):         0.0000000005

  Overlap energy of the core charge distribution:               0.00000004542016
  Self energy of the core charge distribution:              -2898.30882843202517
  Core Hamiltonian energy:                                    924.08933106656355
  Hartree energy:                                             571.48219053829666
  Exchange-correlation energy:                               -260.42649264093421

  GAPW| Exc from hard and soft atomic rho1:                     0.00000000000000
  GAPW| local Eh = 1 center integrals:                          0.00000000000000
  Electronic entropic energy:                                  -0.02328051473155
  Fermi energy:                                                -0.06284092888463

  Total energy:                                             -1663.18707993752923

  outer SCF iter =    1 RMS gradient =   0.98E-08 energy =      -1663.1870799375
  outer SCF loop converged in   1 iterations or   39 steps


 ENERGY| Total FORCE_EVAL ( QS ) energy (a.u.):            -1663.187079690968403


 -------------------------------------------------------------------------------
 -                                                                             -
 -                                DBCSR STATISTICS                             -
 -                                                                             -
 -------------------------------------------------------------------------------
 COUNTER                                    TOTAL       BLAS       SMM       ACC
 flops     1 x     1 x     3                  234       0.0%    100.0%      0.0%
 flops     1 x     1 x    32                34944       0.0%    100.0%      0.0%
 flops     1 x     9 x     3                50544       0.0%    100.0%      0.0%
 flops     9 x     1 x     3                52650       0.0%    100.0%      0.0%
 flops     1 x     9 x    32              7547904       0.0%    100.0%      0.0%
 flops     9 x     1 x    32              7862400       0.0%    100.0%      0.0%
 flops     9 x     9 x     3             24166350       0.0%    100.0%      0.0%
 flops     9 x     9 x    32           3608841600       0.0%    100.0%      0.0%
 flops inhomo. stacks                           0       0.0%      0.0%      0.0%
 flops total                         3.648557E+09       0.0%    100.0%      0.0%
 flops max/rank                    140.254686E+06       0.0%    100.0%      0.0%
 matmuls inhomo. stacks                         0       0.0%      0.0%      0.0%
 matmuls total                             775125       0.0%    100.0%      0.0%
 number of processed stacks                 31590       0.0%    100.0%      0.0%
 average stack size                                     0.0      24.5       0.0
 marketing flops                     4.498012E+09
 -------------------------------------------------------------------------------
 # multiplications                             39
 max memory usage/rank             302.178304E+06
 # max total images/rank                        5
 # max 3D layers                                1
 # MPI messages exchanged                   51480
 MPI messages size (bytes):
  total size                       761.533312E+06
  min size                           0.000000E+00
  max size                          32.512000E+03
  average size                      14.792800E+03
 MPI breakdown and total messages size (bytes):
             size <=      128               12870                        0
       128 < size <=     8192                2574                  5065632
      8192 < size <=    32768               36036                756467712
     32768 < size <=   131072                   0                        0
    131072 < size <=  4194304                   0                        0
   4194304 < size <= 16777216                   0                        0
  16777216 < size                               0                        0
 -------------------------------------------------------------------------------

 *** WARNING in dbcsr_mm.F:295 :: Using a non-square number of MPI ranks ***
 *** might lead to poor performance. Used ranks: 40 Suggested: 36 81     ***

 -------------------------------------------------------------------------------
 -                                                                             -
 -                      DBCSR MESSAGE PASSING PERFORMANCE                      -
 -                                                                             -
 -------------------------------------------------------------------------------
 ROUTINE             CALLS      AVE VOLUME [Bytes]
 MP_Group               41
 MP_Bcast                9                     12.
 MP_Allreduce          311                     10.
 MP_Alltoall          1104                  26204.
 MP_Wait              2808
 MP_ISend             3042                   8465.
 MP_IRecv             2964                   7470.
 MP_Memory            8190
 -------------------------------------------------------------------------------

 MEMORY| Estimated peak process memory [MiB]                                 366

 -------------------------------------------------------------------------------
 -                                                                             -
 -                         MESSAGE PASSING PERFORMANCE                         -
 -                                                                             -
 -------------------------------------------------------------------------------

 ROUTINE             CALLS      AVE VOLUME [Bytes]
 MP_Group                6
 MP_Bcast              148                2408787.
 MP_Allreduce          742                  88845.
 MP_Sync                46
 MP_Alltoall           639                6253291.
 MP_SendRecv           640                 373248.
 MP_ISendRecv        21879                 706556.
 MP_Wait             21879
 MP_Recv                28                 115456.
 -------------------------------------------------------------------------------


 -------------------------------------------------------------------------------
 -                                                                             -
 -                           R E F E R E N C E S                               -
 -                                                                             -
 -------------------------------------------------------------------------------
 
 CP2K version 7.1, the CP2K developers group (2019).
 CP2K is freely available from https://www.cp2k.org/ .

 Schuett, Ole; Messmer, Peter; Hutter, Juerg; VandeVondele, Joost. 
 Electronic Structure Calculations on Graphics Processing Units, John
 Wiley & Sons, Ltd, 173-190 (2016). 
 GPU-Accelerated Sparse Matrix-Matrix Multiplication for
 Linear Scaling Density Functional Theory.
 https://dx.doi.org/10.1002/9781118670712.ch8

 Borstnik, U; VandeVondele, J; Weber, V; Hutter, J. 
 PARALLEL COMPUTING, 40 (5-6), 47-58 (2014). 
 Sparse matrix multiplication: The distributed block-compressed sparse
 row library.
 https://dx.doi.org/10.1016/j.parco.2014.03.012

 Hutter, J; Iannuzzi, M; Schiffmann, F; VandeVondele, J. 
 WIREs Comput Mol Sci., 4 (1), 15-25 (2014). 
 CP2K: atomistic simulations of condensed matter systems.
 https://dx.doi.org/10.1002/wcms.1159

 Marek, A; Blum, V; Johanni, R; Havu, V; Lang, B; Auckenthaler, T;
 Heinecke, A; Bungartz, H; Lederer, H. 
 Journal of Physics: Condensed Matter, 26 (21), (2014). 
 The ELPA library: scalable parallel eigenvalue solutions for
 electronic structure
 theory and computational science.
 https://dx.doi.org/10.1088/0953-8984/26/21/213201

 VandeVondele, J; Hutter, J. 
 JOURNAL OF CHEMICAL PHYSICS, 127 (11), 114105 (2007). 
 Gaussian basis sets for accurate calculations on molecular systems in
 gas and condensed phases.
 https://dx.doi.org/10.1063/1.2770708

 Krack, M. 
 THEORETICAL CHEMISTRY ACCOUNTS, 114 (1-3), 145-152 (2005). 
 Pseudopotentials for H to Kr optimized for gradient-corrected
 exchange-correlation functionals.
 https://dx.doi.org/10.1007/s00214-005-0655-y

 Frigo, M; Johnson, SG. 
 PROCEEDINGS OF THE IEEE, 93 (2), 216-231 (2005). 
 The design and implementation of FFTW3.
 https://dx.doi.org/10.1109/JPROC.2004.840301

 Lippert, G; Hutter, J; Parrinello, M. 
 THEORETICAL CHEMISTRY ACCOUNTS, 103 (2), 124-140 (1999). 
 The Gaussian and augmented-plane-wave density functional method for ab
 initio molecular dynamics simulations.
 https://dx.doi.org/10.1007/s002140050523

 Krack, M; Parrinello, M. 
 PHYSICAL CHEMISTRY CHEMICAL PHYSICS, 2 (10), 2105-2112 (2000). 
 All-electron ab-initio molecular dynamics.
 https://dx.doi.org/10.1039/b001167n

 Hartwigsen, C; Goedecker, S; Hutter, J. 
 PHYSICAL REVIEW B, 58 (7), 3641-3662 (1998). 
 Relativistic separable dual-space Gaussian pseudopotentials from H to Rn.
 https://dx.doi.org/10.1103/PhysRevB.58.3641

 Perdew, JP; Burke, K; Ernzerhof, M. 
 PHYSICAL REVIEW LETTERS, 77 (18), 3865-3868 (1996). 
 Generalized gradient approximation made simple.
 https://dx.doi.org/10.1103/PhysRevLett.77.3865

 Goedecker, S; Teter, M; Hutter, J. 
 PHYSICAL REVIEW B, 54 (3), 1703-1710 (1996). 
 Separable dual-space Gaussian pseudopotentials.
 https://dx.doi.org/10.1103/PhysRevB.54.1703


 -------------------------------------------------------------------------------
 -                                                                             -
 -                                T I M I N G                                  -
 -                                                                             -
 -------------------------------------------------------------------------------
 SUBROUTINE                       CALLS  ASD         SELF TIME        TOTAL TIME
                                MAXIMUM       AVERAGE  MAXIMUM  AVERAGE  MAXIMUM
 CP2K                                 1  1.0    0.017    0.026   72.667   72.669
 qs_energies                          1  2.0    0.000    0.000   72.448   72.449
 scf_env_do_scf                       1  3.0    0.000    0.000   70.591   70.595
 scf_env_do_scf_inner_loop           39  4.0    0.002    0.003   70.591   70.595
 qs_ks_update_qs_env                 40  5.0    0.000    0.000   41.522   41.966
 rebuild_ks_matrix                   40  6.0    0.000    0.000   41.514   41.958
 qs_ks_build_kohn_sham_matrix        40  7.0    0.006    0.008   41.514   41.958
 rs_pw_transfer                     561  9.5    0.005    0.006   29.597   33.525
 mp_waitall_1                     24687 11.5   14.983   19.689   14.983   19.689
 qs_rho_update_rho                   40  5.0    0.000    0.000   18.833   18.836
 calculate_rho_elec                  40  6.0    5.485    8.806   18.829   18.830
 sum_up_and_integrate                40  8.0    0.038    0.042   14.892   18.456
 integrate_v_rspace                  40  9.0    5.712    9.275   14.854   18.414
 rs_pw_transfer_PW2RS_250            80 11.0    7.378    7.877   14.411   16.571
 rs_pw_transfer_RS2PW_250            81 10.0    4.956    5.135   12.997   14.831
 density_rs2pw                       40  7.0    0.002    0.003   11.678   13.563
 integrate_vhg0_rspace               40  8.0    0.020    0.035    9.108   11.227
 potential_pw2rs                     40 10.0    0.005    0.006    9.136    9.139
 pw_transfer                        759  9.2    0.043    0.047    8.628    8.829
 fft_wrap_pw1pw2                    639 10.1    0.005    0.005    8.366    8.563
 qs_scf_loop_print                   39  5.0    0.210    7.017    7.504    8.172
 prepare_gapw_den                    40  8.0    0.000    0.001    8.126    8.143
 put_rho0_on_grid                    40  9.0    0.060    0.068    8.124    8.141
 fft_wrap_pw1pw2_250                239 10.5    0.707    0.738    7.827    8.040
 qs_vxc_create                       40  8.0    0.001    0.001    7.099    7.100
 xc_vxc_pw_create                    40  9.0    0.141    0.158    7.099    7.099
 fft3d_ps                           639 12.1    4.105    4.469    6.282    6.493
 mp_sync                             46  6.1    6.065    6.222    6.065    6.222
 xc_rho_set_and_dset_create          40 10.0    0.088    0.092    5.329    5.860
 xc_functional_eval                  40 11.0    0.000    0.000    4.035    4.547
 pbe_lda_eval                        40 12.0    4.035    4.547    4.035    4.547
 rs_grid_zero                       321  7.6    3.854    3.983    3.854    3.983
 pw_nn_compose_r                    320 10.5    1.749    1.837    2.526    2.909
 gspace_mixing                       38  5.0    0.056    0.063    2.716    2.718
 mp_isendrecv_dv                  21879 11.5    1.329    2.334    1.329    2.334
 mp_sum_dm                           40  6.0    1.388    2.082    1.388    2.082
 mp_alltoall_z22v                   639 14.1    1.307    1.500    1.307    1.500
 -------------------------------------------------------------------------------

 The number of warnings for this run is : 2
 
 -------------------------------------------------------------------------------
  **** **** ******  **  PROGRAM ENDED AT                 2022-12-12 19:45:55.847
 ***** ** ***  *** **   PROGRAM RAN ON                             node-c12f-002
 **    ****   ******    PROGRAM RAN BY                                   mmm0666
 ***** **    ** ** **   PROGRAM PROCESS ID                                 32239
  **** **  *******  **  PROGRAM STOPPED IN /lustre/home/mmm0666/cp2k_ksprint/he_
                                           grid/He9
