 DBCSR| CPU Multiplication driver                                           XSMM
 DBCSR| Multrec recursion limit                                              512
 DBCSR| Multiplication stack size                                           1000
 DBCSR| Maximum elements for images                                    UNLIMITED
 DBCSR| Multiplicative factor virtual images                                   1
 DBCSR| Use multiplication densification                                       T
 DBCSR| Multiplication size stacks                                             3
 DBCSR| Number of 3D layers                                               SINGLE
 DBCSR| Use MPI memory allocation                                              T
 DBCSR| Use RMA algorithm                                                      F
 DBCSR| Use Communication thread                                               T
 DBCSR| Communication thread load                                             87


  **** **** ******  **  PROGRAM STARTED AT               2022-12-13 00:59:50.804
 ***** ** ***  *** **   PROGRAM STARTED ON                         node-c12g-006
 **    ****   ******    PROGRAM STARTED BY                               mmm0666
 ***** **    ** ** **   PROGRAM PROCESS ID                                 77654
  **** **  *******  **  PROGRAM STARTED IN /lustre/home/mmm0666/cp2k_ksprint/he_
                                           grid/He24

 CP2K| version string:                                          CP2K version 7.1
 CP2K| source code revision number:                                  git:e635599
 CP2K| cp2kflags: libint fftw3 libxc elpa parallel mpi3 scalapack quip xsmm spgl
 CP2K|            ib
 CP2K| is freely available from                            https://www.cp2k.org/
 CP2K| Program compiled at                          Wed  8 Jan 12:34:35 GMT 2020
 CP2K| Program compiled on                                               login01
 CP2K| Program compiled for                                                local
 CP2K| Data directory path     /shared/ucl/apps/cp2k/7.1/gnu-4.9.2/cp2k-7.1/data
 CP2K| Input file name                                                 input.inp

 GLOBAL| Force Environment number                                              1
 GLOBAL| Basis set file name            /shared/ucl/apps/cp2k/7.1/gnu-4.9.2/cp2k
 GLOBAL| Potential file name            /shared/ucl/apps/cp2k/7.1/gnu-4.9.2/cp2k
 GLOBAL| MM Potential file name                                     MM_POTENTIAL
 GLOBAL| Coordinate file name                                            mol.xyz
 GLOBAL| Method name                                                        CP2K
 GLOBAL| Project name                                                       Gold
 GLOBAL| Preferred FFT library                                             FFTW3
 GLOBAL| Preferred diagonalization lib.                                     ELPA
 GLOBAL| Run type                                                         ENERGY
 GLOBAL| All-to-all communication in single precision                          F
 GLOBAL| FFTs using library dependent lengths                                  F
 GLOBAL| Global print level                                                  LOW
 GLOBAL| MPI I/O enabled                                                       T
 GLOBAL| Total number of message passing processes                            40
 GLOBAL| Number of threads for this process                                    1
 GLOBAL| This output is from process                                           0
 GLOBAL| CPU model name                 Intel(R) Xeon(R) Gold 6248 CPU @ 2.50GHz
 GLOBAL| CPUID                                                              1003

 MEMORY| system memory details [Kb]
 MEMORY|                        rank 0           min           max       average
 MEMORY| MemTotal            197730152     197730152     197730152     197730152
 MEMORY| MemFree             177989308     177989308     177989308     177989308
 MEMORY| Buffers                     0             0             0             0
 MEMORY| Cached               11618400      11618400      11618400      11618400
 MEMORY| Slab                  1425864       1425864       1425864       1425864
 MEMORY| SReclaimable           569512        569512        569512        569512
 MEMORY| MemLikelyFree       190177220     190177220     190177220     190177220


 GENERATE|  Preliminary Number of Bonds generated:                             0
 GENERATE|  Achieved consistency in connectivity generation.

 *******************************************************************************
 *******************************************************************************
 **                                                                           **
 **     #####                         ##              ##                      **
 **    ##   ##            ##          ##              ##                      **
 **   ##     ##                       ##            ######                    **
 **   ##     ##  ##   ##  ##   #####  ##  ##   ####   ##    #####    #####    **
 **   ##     ##  ##   ##  ##  ##      ## ##   ##      ##   ##   ##  ##   ##   **
 **   ##  ## ##  ##   ##  ##  ##      ####     ###    ##   ######   ######    **
 **    ##  ###   ##   ##  ##  ##      ## ##      ##   ##   ##       ##        **
 **     #######   #####   ##   #####  ##  ##  ####    ##    #####   ##        **
 **           ##                                                    ##        **
 **                                                                           **
 **                                                ... make the atoms dance   **
 **                                                                           **
 **            Copyright (C) by CP2K developers group (2000 - 2019)           **
 **                                                                           **
 *******************************************************************************

 *** WARNING in qs_environment.F:1310 :: More added MOs requested than ***
 *** available. The full set of unoccupied MOs will be used.           ***



 TOTAL NUMBERS AND MAXIMUM NUMBERS

  Total number of            - Atomic kinds:                                   2
                             - Atoms:                                         51
                             - Shell sets:                                    51
                             - Shells:                                       151
                             - Primitive Cartesian functions:                252
                             - Cartesian basis functions:                    501
                             - Spherical basis functions:                    451

  Maximum angular momentum of- Orbital basis functions:                        2
                             - Local part of the GTH pseudopotential:          2
                             - Non-local part of the GTH pseudopotential:      4


 SCF PARAMETERS         Density guess:                                    ATOMIC
                        --------------------------------------------------------
                        max_scf:                                             100
                        max_scf_history:                                       0
                        max_diis:                                              4
                        --------------------------------------------------------
                        eps_scf:                                        1.00E-08
                        eps_scf_history:                                0.00E+00
                        eps_diis:                                       1.00E-01
                        eps_eigval:                                     1.00E-05
                        --------------------------------------------------------
                        level_shift [a.u.]:                                 0.00
                        added MOs                                       175    0
                        --------------------------------------------------------
                        Mixing method:                              PULAY_MIXING
                                                charge density mixing in g-space
                        --------------------------------------------------------
                        Smear method:                                FERMI_DIRAC
                        Electronic temperature [K]:                       1000.0
                        Electronic temperature [a.u.]:                  3.17E-03
                        Accuracy threshold:                             1.00E-10
                        --------------------------------------------------------
                        Outer loop SCF in use 
                        No variables optimised in outer loop
                        eps_scf                                         1.00E-06
                        max_scf                                              100
                        Steepest descent optimization
                        step_size                                       5.00E-01

 Number of electrons:                                                        552
 Number of occupied orbitals:                                                276
 Number of molecular orbitals:                                               451

 Number of orbital functions:                                                451
 Number of independent orbital functions:                                    451

 Extrapolation method: initial_guess


 SCF WAVEFUNCTION OPTIMIZATION

  Step     Update method      Time    Convergence         Total energy    Change
  ------------------------------------------------------------------------------
     1 NoMix/Diag. 0.20E+00    1.3     0.31011606     -1662.5296164155 -1.66E+03
     2 Pulay/Diag. 0.20E+00    1.8     0.02784228     -1702.5730408811 -4.00E+01
     3 Pulay/Diag. 0.20E+00    1.9     0.05027495     -1677.8179970496  2.48E+01
     4 Pulay/Diag. 0.20E+00    1.8     0.01523002     -1664.6275077378  1.32E+01
     5 Pulay/Diag. 0.20E+00    1.8     0.00320364     -1663.3206663788  1.31E+00
     6 Pulay/Diag. 0.20E+00    1.8     0.00421984     -1663.2176919660  1.03E-01
     7 Pulay/Diag. 0.20E+00    1.8     0.00245451     -1663.2508148725 -3.31E-02
     8 Pulay/Diag. 0.20E+00    1.8     0.00049568     -1663.2743418785 -2.35E-02
     9 Pulay/Diag. 0.20E+00    1.8     0.00065274     -1663.2697856465  4.56E-03
    10 Pulay/Diag. 0.20E+00    1.8     0.00048060     -1663.2321298411  3.77E-02
    11 Pulay/Diag. 0.20E+00    1.8     0.00027939     -1663.2219063548  1.02E-02
    12 Pulay/Diag. 0.20E+00    1.8     0.00024226     -1663.2086981606  1.32E-02
    13 Pulay/Diag. 0.20E+00    1.8     0.00022088     -1663.1925966294  1.61E-02
    14 Pulay/Diag. 0.20E+00    1.8     0.00010895     -1663.1875152764  5.08E-03
    15 Pulay/Diag. 0.20E+00    1.8     0.00003984     -1663.1863238125  1.19E-03
    16 Pulay/Diag. 0.20E+00    1.8     0.00002287     -1663.1871581183 -8.34E-04
    17 Pulay/Diag. 0.20E+00    1.8     0.00001257     -1663.1867331263  4.25E-04
    18 Pulay/Diag. 0.20E+00    1.8     0.00000669     -1663.1868180962 -8.50E-05
    19 Pulay/Diag. 0.20E+00    1.8     0.00000491     -1663.1867304031  8.77E-05
    20 Pulay/Diag. 0.20E+00    1.8     0.00000383     -1663.1866976394  3.28E-05
    21 Pulay/Diag. 0.20E+00    2.2     0.00000147     -1663.1867113031 -1.37E-05
    22 Pulay/Diag. 0.20E+00    1.8     0.00000083     -1663.1867180278 -6.72E-06
    23 Pulay/Diag. 0.20E+00    1.8     0.00000085     -1663.1866855356  3.25E-05
    24 Pulay/Diag. 0.20E+00    1.8     0.00000061     -1663.1866767857  8.75E-06
    25 Pulay/Diag. 0.20E+00    1.9     0.00000060     -1663.1866838629 -7.08E-06
    26 Pulay/Diag. 0.20E+00    1.9     0.00000054     -1663.1866801750  3.69E-06
    27 Pulay/Diag. 0.20E+00    1.9     0.00000030     -1663.1866706648  9.51E-06
    28 Pulay/Diag. 0.20E+00    1.9     0.00000036     -1663.1866630078  7.66E-06
    29 Pulay/Diag. 0.20E+00    1.8     0.00000040     -1663.1866587539  4.25E-06
    30 Pulay/Diag. 0.20E+00    2.0     0.00000023     -1663.1866536257  5.13E-06
    31 Pulay/Diag. 0.20E+00    1.8     0.00000011     -1663.1866513168  2.31E-06
    32 Pulay/Diag. 0.20E+00    1.8     0.00000009     -1663.1866490654  2.25E-06
    33 Pulay/Diag. 0.20E+00    1.8     0.00000007     -1663.1866477213  1.34E-06
    34 Pulay/Diag. 0.20E+00    1.8     0.00000003     -1663.1866495769 -1.86E-06
    35 Pulay/Diag. 0.20E+00    1.8     0.00000002     -1663.1866480431  1.53E-06
    36 Pulay/Diag. 0.20E+00    1.8     0.00000002     -1663.1866473093  7.34E-07
    37 Pulay/Diag. 0.20E+00    1.8     0.00000002     -1663.1866464987  8.11E-07
    38 Pulay/Diag. 0.20E+00    1.8     0.00000001     -1663.1866464967  2.08E-09
    39 Pulay/Diag. 0.20E+00    1.9     7.1869E-09     -1663.1866464252  7.14E-08

  *** SCF run converged in    39 steps ***


  Electronic density on regular grids:       -551.9999999995        0.0000000005
  Core density on regular grids:              552.0000000000       -0.0000000000
  Hard and soft densities (Lebedev):           -0.0000000000       -0.0000000000
  Total Rho_soft + Rho1_hard - Rho1_soft     -551.9999999995
  Total charge density (r-space):               0.0000000005
  Total Rho_soft + Rho0_soft (g-space):         0.0000000005

  Overlap energy of the core charge distribution:               0.00000004542016
  Self energy of the core charge distribution:              -2898.30882843202517
  Core Hamiltonian energy:                                    924.09285927794394
  Hartree energy:                                             571.48010486016005
  Exchange-correlation energy:                               -260.42749927611135

  GAPW| Exc from hard and soft atomic rho1:                     0.00000000000000
  GAPW| local Eh = 1 center integrals:                          0.00000000000000
  Electronic entropic energy:                                  -0.02328290052372
  Fermi energy:                                                -0.06287904981285

  Total energy:                                             -1663.18664642522572

  outer SCF iter =    1 RMS gradient =   0.72E-08 energy =      -1663.1866464252
  outer SCF loop converged in   1 iterations or   39 steps


 ENERGY| Total FORCE_EVAL ( QS ) energy (a.u.):            -1663.186646267918832


 -------------------------------------------------------------------------------
 -                                                                             -
 -                                DBCSR STATISTICS                             -
 -                                                                             -
 -------------------------------------------------------------------------------
 COUNTER                                    TOTAL       BLAS       SMM       ACC
 flops     1 x     1 x     3                  234       0.0%    100.0%      0.0%
 flops     1 x     1 x    32                34944       0.0%    100.0%      0.0%
 flops     1 x     9 x     3                52650       0.0%    100.0%      0.0%
 flops     9 x     1 x     3                52650       0.0%    100.0%      0.0%
 flops     1 x     9 x    32              7862400       0.0%    100.0%      0.0%
 flops     9 x     1 x    32              7862400       0.0%    100.0%      0.0%
 flops     9 x     9 x     3             24166350       0.0%    100.0%      0.0%
 flops     9 x     9 x    32           3608841600       0.0%    100.0%      0.0%
 flops inhomo. stacks                           0       0.0%      0.0%      0.0%
 flops total                         3.648873E+09       0.0%    100.0%      0.0%
 flops max/rank                    140.254686E+06       0.0%    100.0%      0.0%
 matmuls inhomo. stacks                         0       0.0%      0.0%      0.0%
 matmuls total                             775710       0.0%    100.0%      0.0%
 number of processed stacks                 31590       0.0%    100.0%      0.0%
 average stack size                                     0.0      24.6       0.0
 marketing flops                     4.498012E+09
 -------------------------------------------------------------------------------
 # multiplications                             39
 max memory usage/rank             301.572096E+06
 # max total images/rank                        5
 # max 3D layers                                1
 # MPI messages exchanged                   51480
 MPI messages size (bytes):
  total size                       761.533312E+06
  min size                           0.000000E+00
  max size                          32.512000E+03
  average size                      14.792800E+03
 MPI breakdown and total messages size (bytes):
             size <=      128               12870                        0
       128 < size <=     8192                2574                  5065632
      8192 < size <=    32768               36036                756467712
     32768 < size <=   131072                   0                        0
    131072 < size <=  4194304                   0                        0
   4194304 < size <= 16777216                   0                        0
  16777216 < size                               0                        0
 -------------------------------------------------------------------------------

 *** WARNING in dbcsr_mm.F:295 :: Using a non-square number of MPI ranks ***
 *** might lead to poor performance. Used ranks: 40 Suggested: 36 81     ***

 -------------------------------------------------------------------------------
 -                                                                             -
 -                      DBCSR MESSAGE PASSING PERFORMANCE                      -
 -                                                                             -
 -------------------------------------------------------------------------------
 ROUTINE             CALLS      AVE VOLUME [Bytes]
 MP_Group               41
 MP_Bcast                9                     12.
 MP_Allreduce          311                     10.
 MP_Alltoall          1104                  26204.
 MP_Wait              2808
 MP_ISend             3042                   8465.
 MP_IRecv             2964                   7470.
 MP_Memory            8190
 -------------------------------------------------------------------------------

 MEMORY| Estimated peak process memory [MiB]                                 365

 -------------------------------------------------------------------------------
 -                                                                             -
 -                         MESSAGE PASSING PERFORMANCE                         -
 -                                                                             -
 -------------------------------------------------------------------------------

 ROUTINE             CALLS      AVE VOLUME [Bytes]
 MP_Group                6
 MP_Bcast              148                2408767.
 MP_Allreduce          742                  88845.
 MP_Sync                46
 MP_Alltoall           639                6253291.
 MP_SendRecv           640                 373248.
 MP_ISendRecv        21879                 706556.
 MP_Wait             21879
 MP_Recv                28                 115456.
 -------------------------------------------------------------------------------


 -------------------------------------------------------------------------------
 -                                                                             -
 -                           R E F E R E N C E S                               -
 -                                                                             -
 -------------------------------------------------------------------------------
 
 CP2K version 7.1, the CP2K developers group (2019).
 CP2K is freely available from https://www.cp2k.org/ .

 Schuett, Ole; Messmer, Peter; Hutter, Juerg; VandeVondele, Joost. 
 Electronic Structure Calculations on Graphics Processing Units, John
 Wiley & Sons, Ltd, 173-190 (2016). 
 GPU-Accelerated Sparse Matrix-Matrix Multiplication for
 Linear Scaling Density Functional Theory.
 https://dx.doi.org/10.1002/9781118670712.ch8

 Borstnik, U; VandeVondele, J; Weber, V; Hutter, J. 
 PARALLEL COMPUTING, 40 (5-6), 47-58 (2014). 
 Sparse matrix multiplication: The distributed block-compressed sparse
 row library.
 https://dx.doi.org/10.1016/j.parco.2014.03.012

 Hutter, J; Iannuzzi, M; Schiffmann, F; VandeVondele, J. 
 WIREs Comput Mol Sci., 4 (1), 15-25 (2014). 
 CP2K: atomistic simulations of condensed matter systems.
 https://dx.doi.org/10.1002/wcms.1159

 Marek, A; Blum, V; Johanni, R; Havu, V; Lang, B; Auckenthaler, T;
 Heinecke, A; Bungartz, H; Lederer, H. 
 Journal of Physics: Condensed Matter, 26 (21), (2014). 
 The ELPA library: scalable parallel eigenvalue solutions for
 electronic structure
 theory and computational science.
 https://dx.doi.org/10.1088/0953-8984/26/21/213201

 VandeVondele, J; Hutter, J. 
 JOURNAL OF CHEMICAL PHYSICS, 127 (11), 114105 (2007). 
 Gaussian basis sets for accurate calculations on molecular systems in
 gas and condensed phases.
 https://dx.doi.org/10.1063/1.2770708

 Krack, M. 
 THEORETICAL CHEMISTRY ACCOUNTS, 114 (1-3), 145-152 (2005). 
 Pseudopotentials for H to Kr optimized for gradient-corrected
 exchange-correlation functionals.
 https://dx.doi.org/10.1007/s00214-005-0655-y

 Frigo, M; Johnson, SG. 
 PROCEEDINGS OF THE IEEE, 93 (2), 216-231 (2005). 
 The design and implementation of FFTW3.
 https://dx.doi.org/10.1109/JPROC.2004.840301

 Lippert, G; Hutter, J; Parrinello, M. 
 THEORETICAL CHEMISTRY ACCOUNTS, 103 (2), 124-140 (1999). 
 The Gaussian and augmented-plane-wave density functional method for ab
 initio molecular dynamics simulations.
 https://dx.doi.org/10.1007/s002140050523

 Krack, M; Parrinello, M. 
 PHYSICAL CHEMISTRY CHEMICAL PHYSICS, 2 (10), 2105-2112 (2000). 
 All-electron ab-initio molecular dynamics.
 https://dx.doi.org/10.1039/b001167n

 Hartwigsen, C; Goedecker, S; Hutter, J. 
 PHYSICAL REVIEW B, 58 (7), 3641-3662 (1998). 
 Relativistic separable dual-space Gaussian pseudopotentials from H to Rn.
 https://dx.doi.org/10.1103/PhysRevB.58.3641

 Perdew, JP; Burke, K; Ernzerhof, M. 
 PHYSICAL REVIEW LETTERS, 77 (18), 3865-3868 (1996). 
 Generalized gradient approximation made simple.
 https://dx.doi.org/10.1103/PhysRevLett.77.3865

 Goedecker, S; Teter, M; Hutter, J. 
 PHYSICAL REVIEW B, 54 (3), 1703-1710 (1996). 
 Separable dual-space Gaussian pseudopotentials.
 https://dx.doi.org/10.1103/PhysRevB.54.1703


 -------------------------------------------------------------------------------
 -                                                                             -
 -                                T I M I N G                                  -
 -                                                                             -
 -------------------------------------------------------------------------------
 SUBROUTINE                       CALLS  ASD         SELF TIME        TOTAL TIME
                                MAXIMUM       AVERAGE  MAXIMUM  AVERAGE  MAXIMUM
 CP2K                                 1  1.0    0.018    0.028   73.710   73.711
 qs_energies                          1  2.0    0.000    0.000   73.447   73.448
 scf_env_do_scf                       1  3.0    0.000    0.000   71.566   71.571
 scf_env_do_scf_inner_loop           39  4.0    0.002    0.014   71.566   71.570
 qs_ks_update_qs_env                 40  5.0    0.000    0.000   41.698   42.144
 rebuild_ks_matrix                   40  6.0    0.000    0.000   41.691   42.135
 qs_ks_build_kohn_sham_matrix        40  7.0    0.006    0.009   41.690   42.135
 rs_pw_transfer                     561  9.5    0.005    0.006   29.795   33.659
 mp_waitall_1                     24687 11.5   15.360   20.875   15.360   20.875
 qs_rho_update_rho                   40  5.0    0.000    0.000   18.904   18.908
 calculate_rho_elec                  40  6.0    5.478    8.783   18.900   18.902
 sum_up_and_integrate                40  8.0    0.038    0.043   14.967   18.506
 integrate_v_rspace                  40  9.0    5.706    9.244   14.929   18.463
 rs_pw_transfer_PW2RS_250            80 11.0    7.246    8.144   14.525   16.546
 rs_pw_transfer_RS2PW_250            81 10.0    4.865    5.145   13.060   14.878
 density_rs2pw                       40  7.0    0.002    0.003   11.757   13.618
 integrate_vhg0_rspace               40  8.0    0.020    0.037    9.145   11.186
 potential_pw2rs                     40 10.0    0.005    0.006    9.217    9.219
 pw_transfer                        759  9.2    0.043    0.049    8.661    8.891
 qs_scf_loop_print                   39  5.0    0.222    7.523    7.980    8.678
 fft_wrap_pw1pw2                    639 10.1    0.005    0.005    8.400    8.623
 prepare_gapw_den                    40  8.0    0.000    0.000    8.178    8.203
 put_rho0_on_grid                    40  9.0    0.060    0.067    8.176    8.200
 fft_wrap_pw1pw2_250                239 10.5    0.698    0.732    7.854    8.095
 qs_vxc_create                       40  8.0    0.000    0.001    7.112    7.112
 xc_vxc_pw_create                    40  9.0    0.140    0.156    7.111    7.111
 fft3d_ps                           639 12.1    4.085    4.460    6.331    6.569
 mp_sync                             46  6.1    6.068    6.229    6.068    6.229
 xc_rho_set_and_dset_create          40 10.0    0.088    0.096    5.336    5.920
 xc_functional_eval                  40 11.0    0.000    0.000    4.038    4.601
 pbe_lda_eval                        40 12.0    4.038    4.601    4.038    4.601
 rs_grid_zero                       321  7.6    3.844    3.966    3.844    3.966
 mp_isendrecv_dv                  21879 11.5    1.377    3.182    1.377    3.182
 pw_nn_compose_r                    320 10.5    1.742    1.827    2.533    2.920
 gspace_mixing                       38  5.0    0.056    0.064    2.773    2.775
 mp_sum_dm                           40  6.0    1.869    2.611    1.869    2.611
 mp_alltoall_z22v                   639 14.1    1.380    1.617    1.380    1.617
 -------------------------------------------------------------------------------

 The number of warnings for this run is : 2
 
 -------------------------------------------------------------------------------
  **** **** ******  **  PROGRAM ENDED AT                 2022-12-13 01:01:04.934
 ***** ** ***  *** **   PROGRAM RAN ON                             node-c12g-006
 **    ****   ******    PROGRAM RAN BY                                   mmm0666
 ***** **    ** ** **   PROGRAM PROCESS ID                                 77654
  **** **  *******  **  PROGRAM STOPPED IN /lustre/home/mmm0666/cp2k_ksprint/he_
                                           grid/He24
