 DBCSR| CPU Multiplication driver                                           XSMM
 DBCSR| Multrec recursion limit                                              512
 DBCSR| Multiplication stack size                                           1000
 DBCSR| Maximum elements for images                                    UNLIMITED
 DBCSR| Multiplicative factor virtual images                                   1
 DBCSR| Use multiplication densification                                       T
 DBCSR| Multiplication size stacks                                             3
 DBCSR| Number of 3D layers                                               SINGLE
 DBCSR| Use MPI memory allocation                                              T
 DBCSR| Use RMA algorithm                                                      F
 DBCSR| Use Communication thread                                               T
 DBCSR| Communication thread load                                             87


  **** **** ******  **  PROGRAM STARTED AT               2022-12-12 19:33:42.311
 ***** ** ***  *** **   PROGRAM STARTED ON                         node-c12f-002
 **    ****   ******    PROGRAM STARTED BY                               mmm0666
 ***** **    ** ** **   PROGRAM PROCESS ID                                 79597
  **** **  *******  **  PROGRAM STARTED IN /lustre/home/mmm0666/cp2k_ksprint/he_
                                           grid/He5

 CP2K| version string:                                          CP2K version 7.1
 CP2K| source code revision number:                                  git:e635599
 CP2K| cp2kflags: libint fftw3 libxc elpa parallel mpi3 scalapack quip xsmm spgl
 CP2K|            ib
 CP2K| is freely available from                            https://www.cp2k.org/
 CP2K| Program compiled at                          Wed  8 Jan 12:34:35 GMT 2020
 CP2K| Program compiled on                                               login01
 CP2K| Program compiled for                                                local
 CP2K| Data directory path     /shared/ucl/apps/cp2k/7.1/gnu-4.9.2/cp2k-7.1/data
 CP2K| Input file name                                                 input.inp

 GLOBAL| Force Environment number                                              1
 GLOBAL| Basis set file name            /shared/ucl/apps/cp2k/7.1/gnu-4.9.2/cp2k
 GLOBAL| Potential file name            /shared/ucl/apps/cp2k/7.1/gnu-4.9.2/cp2k
 GLOBAL| MM Potential file name                                     MM_POTENTIAL
 GLOBAL| Coordinate file name                                            mol.xyz
 GLOBAL| Method name                                                        CP2K
 GLOBAL| Project name                                                       Gold
 GLOBAL| Preferred FFT library                                             FFTW3
 GLOBAL| Preferred diagonalization lib.                                     ELPA
 GLOBAL| Run type                                                         ENERGY
 GLOBAL| All-to-all communication in single precision                          F
 GLOBAL| FFTs using library dependent lengths                                  F
 GLOBAL| Global print level                                                  LOW
 GLOBAL| MPI I/O enabled                                                       T
 GLOBAL| Total number of message passing processes                            40
 GLOBAL| Number of threads for this process                                    1
 GLOBAL| This output is from process                                           0
 GLOBAL| CPU model name                 Intel(R) Xeon(R) Gold 6248 CPU @ 2.50GHz
 GLOBAL| CPUID                                                              1003

 MEMORY| system memory details [Kb]
 MEMORY|                        rank 0           min           max       average
 MEMORY| MemTotal            197730148     197730148     197730148     197730148
 MEMORY| MemFree             176595292     176595292     176595292     176595292
 MEMORY| Buffers                     0             0             0             0
 MEMORY| Cached               13255304      13255304      13255304      13255304
 MEMORY| Slab                  1132364       1132364       1132364       1132364
 MEMORY| SReclaimable           241876        241876        241876        241876
 MEMORY| MemLikelyFree       190092472     190092472     190092472     190092472


 GENERATE|  Preliminary Number of Bonds generated:                             0
 GENERATE|  Achieved consistency in connectivity generation.

 *******************************************************************************
 *******************************************************************************
 **                                                                           **
 **     #####                         ##              ##                      **
 **    ##   ##            ##          ##              ##                      **
 **   ##     ##                       ##            ######                    **
 **   ##     ##  ##   ##  ##   #####  ##  ##   ####   ##    #####    #####    **
 **   ##     ##  ##   ##  ##  ##      ## ##   ##      ##   ##   ##  ##   ##   **
 **   ##  ## ##  ##   ##  ##  ##      ####     ###    ##   ######   ######    **
 **    ##  ###   ##   ##  ##  ##      ## ##      ##   ##   ##       ##        **
 **     #######   #####   ##   #####  ##  ##  ####    ##    #####   ##        **
 **           ##                                                    ##        **
 **                                                                           **
 **                                                ... make the atoms dance   **
 **                                                                           **
 **            Copyright (C) by CP2K developers group (2000 - 2019)           **
 **                                                                           **
 *******************************************************************************

 *** WARNING in qs_environment.F:1310 :: More added MOs requested than ***
 *** available. The full set of unoccupied MOs will be used.           ***



 TOTAL NUMBERS AND MAXIMUM NUMBERS

  Total number of            - Atomic kinds:                                   2
                             - Atoms:                                         51
                             - Shell sets:                                    51
                             - Shells:                                       151
                             - Primitive Cartesian functions:                252
                             - Cartesian basis functions:                    501
                             - Spherical basis functions:                    451

  Maximum angular momentum of- Orbital basis functions:                        2
                             - Local part of the GTH pseudopotential:          2
                             - Non-local part of the GTH pseudopotential:      4


 SCF PARAMETERS         Density guess:                                    ATOMIC
                        --------------------------------------------------------
                        max_scf:                                             100
                        max_scf_history:                                       0
                        max_diis:                                              4
                        --------------------------------------------------------
                        eps_scf:                                        1.00E-08
                        eps_scf_history:                                0.00E+00
                        eps_diis:                                       1.00E-01
                        eps_eigval:                                     1.00E-05
                        --------------------------------------------------------
                        level_shift [a.u.]:                                 0.00
                        added MOs                                       175    0
                        --------------------------------------------------------
                        Mixing method:                              PULAY_MIXING
                                                charge density mixing in g-space
                        --------------------------------------------------------
                        Smear method:                                FERMI_DIRAC
                        Electronic temperature [K]:                       1000.0
                        Electronic temperature [a.u.]:                  3.17E-03
                        Accuracy threshold:                             1.00E-10
                        --------------------------------------------------------
                        Outer loop SCF in use 
                        No variables optimised in outer loop
                        eps_scf                                         1.00E-06
                        max_scf                                              100
                        Steepest descent optimization
                        step_size                                       5.00E-01

 Number of electrons:                                                        552
 Number of occupied orbitals:                                                276
 Number of molecular orbitals:                                               451

 Number of orbital functions:                                                451
 Number of independent orbital functions:                                    451

 Extrapolation method: initial_guess


 SCF WAVEFUNCTION OPTIMIZATION

  Step     Update method      Time    Convergence         Total energy    Change
  ------------------------------------------------------------------------------
     1 NoMix/Diag. 0.20E+00    1.3     0.31010713     -1662.5297699213 -1.66E+03
     2 Pulay/Diag. 0.20E+00    1.8     0.02784590     -1702.5727954227 -4.00E+01
     3 Pulay/Diag. 0.20E+00    1.8     0.05004001     -1677.8161856216  2.48E+01
     4 Pulay/Diag. 0.20E+00    1.8     0.01522908     -1664.6271613949  1.32E+01
     5 Pulay/Diag. 0.20E+00    1.8     0.00286024     -1663.3196107897  1.31E+00
     6 Pulay/Diag. 0.20E+00    1.8     0.00391359     -1663.2207291686  9.89E-02
     7 Pulay/Diag. 0.20E+00    1.9     0.00233573     -1663.2521662530 -3.14E-02
     8 Pulay/Diag. 0.20E+00    1.9     0.00058361     -1663.2745047763 -2.23E-02
     9 Pulay/Diag. 0.20E+00    1.8     0.00070991     -1663.2701208734  4.38E-03
    10 Pulay/Diag. 0.20E+00    1.8     0.00050633     -1663.2326199030  3.75E-02
    11 Pulay/Diag. 0.20E+00    1.8     0.00024159     -1663.2222048672  1.04E-02
    12 Pulay/Diag. 0.20E+00    1.8     0.00025691     -1663.2096251461  1.26E-02
    13 Pulay/Diag. 0.20E+00    1.8     0.00025043     -1663.1944929104  1.51E-02
    14 Pulay/Diag. 0.20E+00    1.8     0.00011589     -1663.1884023155  6.09E-03
    15 Pulay/Diag. 0.20E+00    1.8     0.00003771     -1663.1866722212  1.73E-03
    16 Pulay/Diag. 0.20E+00    1.8     0.00002296     -1663.1876397841 -9.68E-04
    17 Pulay/Diag. 0.20E+00    1.8     0.00001263     -1663.1871841566  4.56E-04
    18 Pulay/Diag. 0.20E+00    1.8     0.00000830     -1663.1872459946 -6.18E-05
    19 Pulay/Diag. 0.20E+00    1.8     0.00000593     -1663.1871768146  6.92E-05
    20 Pulay/Diag. 0.20E+00    1.8     0.00000375     -1663.1871328785  4.39E-05
    21 Pulay/Diag. 0.20E+00    1.8     0.00000143     -1663.1871438784 -1.10E-05
    22 Pulay/Diag. 0.20E+00    1.8     0.00000079     -1663.1871531370 -9.26E-06
    23 Pulay/Diag. 0.20E+00    1.8     0.00000083     -1663.1871216765  3.15E-05
    24 Pulay/Diag. 0.20E+00    1.8     0.00000066     -1663.1871129811  8.70E-06
    25 Pulay/Diag. 0.20E+00    1.8     0.00000065     -1663.1871189944 -6.01E-06
    26 Pulay/Diag. 0.20E+00    1.8     0.00000052     -1663.1871160352  2.96E-06
    27 Pulay/Diag. 0.20E+00    1.8     0.00000037     -1663.1871091619  6.87E-06
    28 Pulay/Diag. 0.20E+00    1.8     0.00000031     -1663.1871007321  8.43E-06
    29 Pulay/Diag. 0.20E+00    1.8     0.00000041     -1663.1870960926  4.64E-06
    30 Pulay/Diag. 0.20E+00    1.8     0.00000024     -1663.1870916918  4.40E-06
    31 Pulay/Diag. 0.20E+00    1.8     0.00000011     -1663.1870894363  2.26E-06
    32 Pulay/Diag. 0.20E+00    1.8     0.00000007     -1663.1870873580  2.08E-06
    33 Pulay/Diag. 0.20E+00    1.8     0.00000006     -1663.1870863461  1.01E-06
    34 Pulay/Diag. 0.20E+00    1.8     0.00000003     -1663.1870879117 -1.57E-06
    35 Pulay/Diag. 0.20E+00    1.8     0.00000002     -1663.1870865281  1.38E-06
    36 Pulay/Diag. 0.20E+00    1.8     0.00000003     -1663.1870857520  7.76E-07
    37 Pulay/Diag. 0.20E+00    1.8     0.00000003     -1663.1870851613  5.91E-07
    38 Pulay/Diag. 0.20E+00    1.8     0.00000001     -1663.1870848875  2.74E-07
    39 Pulay/Diag. 0.20E+00    1.8     8.7889E-09     -1663.1870848821  5.38E-09

  *** SCF run converged in    39 steps ***


  Electronic density on regular grids:       -551.9999999995        0.0000000005
  Core density on regular grids:              552.0000000000       -0.0000000000
  Hard and soft densities (Lebedev):           -0.0000000000       -0.0000000000
  Total Rho_soft + Rho1_hard - Rho1_soft     -551.9999999995
  Total charge density (r-space):               0.0000000005
  Total Rho_soft + Rho0_soft (g-space):         0.0000000005

  Overlap energy of the core charge distribution:               0.00000004542016
  Self energy of the core charge distribution:              -2898.30882843202517
  Core Hamiltonian energy:                                    924.08928272753587
  Hartree energy:                                             571.48221960664830
  Exchange-correlation energy:                               -260.42647839866277

  GAPW| Exc from hard and soft atomic rho1:                     0.00000000000000
  GAPW| local Eh = 1 center integrals:                          0.00000000000000
  Electronic entropic energy:                                  -0.02328043089455
  Fermi energy:                                                -0.06284054737590

  Total energy:                                             -1663.18708488210245

  outer SCF iter =    1 RMS gradient =   0.88E-08 energy =      -1663.1870848821
  outer SCF loop converged in   1 iterations or   39 steps


 ENERGY| Total FORCE_EVAL ( QS ) energy (a.u.):            -1663.187084666557666


 -------------------------------------------------------------------------------
 -                                                                             -
 -                                DBCSR STATISTICS                             -
 -                                                                             -
 -------------------------------------------------------------------------------
 COUNTER                                    TOTAL       BLAS       SMM       ACC
 flops     1 x     1 x     3                  234       0.0%    100.0%      0.0%
 flops     1 x     1 x    32                34944       0.0%    100.0%      0.0%
 flops     1 x     9 x     3                50544       0.0%    100.0%      0.0%
 flops     9 x     1 x     3                52650       0.0%    100.0%      0.0%
 flops     1 x     9 x    32              7547904       0.0%    100.0%      0.0%
 flops     9 x     1 x    32              7862400       0.0%    100.0%      0.0%
 flops     9 x     9 x     3             24166350       0.0%    100.0%      0.0%
 flops     9 x     9 x    32           3608841600       0.0%    100.0%      0.0%
 flops inhomo. stacks                           0       0.0%      0.0%      0.0%
 flops total                         3.648557E+09       0.0%    100.0%      0.0%
 flops max/rank                    140.254686E+06       0.0%    100.0%      0.0%
 matmuls inhomo. stacks                         0       0.0%      0.0%      0.0%
 matmuls total                             775125       0.0%    100.0%      0.0%
 number of processed stacks                 31590       0.0%    100.0%      0.0%
 average stack size                                     0.0      24.5       0.0
 marketing flops                     4.498012E+09
 -------------------------------------------------------------------------------
 # multiplications                             39
 max memory usage/rank             302.235648E+06
 # max total images/rank                        5
 # max 3D layers                                1
 # MPI messages exchanged                   51480
 MPI messages size (bytes):
  total size                       761.533312E+06
  min size                           0.000000E+00
  max size                          32.512000E+03
  average size                      14.792800E+03
 MPI breakdown and total messages size (bytes):
             size <=      128               12870                        0
       128 < size <=     8192                2574                  5065632
      8192 < size <=    32768               36036                756467712
     32768 < size <=   131072                   0                        0
    131072 < size <=  4194304                   0                        0
   4194304 < size <= 16777216                   0                        0
  16777216 < size                               0                        0
 -------------------------------------------------------------------------------

 *** WARNING in dbcsr_mm.F:295 :: Using a non-square number of MPI ranks ***
 *** might lead to poor performance. Used ranks: 40 Suggested: 36 81     ***

 -------------------------------------------------------------------------------
 -                                                                             -
 -                      DBCSR MESSAGE PASSING PERFORMANCE                      -
 -                                                                             -
 -------------------------------------------------------------------------------
 ROUTINE             CALLS      AVE VOLUME [Bytes]
 MP_Group               41
 MP_Bcast                9                     12.
 MP_Allreduce          311                     10.
 MP_Alltoall          1104                  26204.
 MP_Wait              2808
 MP_ISend             3042                   8465.
 MP_IRecv             2964                   7470.
 MP_Memory            8190
 -------------------------------------------------------------------------------

 MEMORY| Estimated peak process memory [MiB]                                 366

 -------------------------------------------------------------------------------
 -                                                                             -
 -                         MESSAGE PASSING PERFORMANCE                         -
 -                                                                             -
 -------------------------------------------------------------------------------

 ROUTINE             CALLS      AVE VOLUME [Bytes]
 MP_Group                6
 MP_Bcast              148                2408740.
 MP_Allreduce          742                  88845.
 MP_Sync                46
 MP_Alltoall           639                6253291.
 MP_SendRecv           640                 373248.
 MP_ISendRecv        21879                 706556.
 MP_Wait             21879
 MP_Recv                28                 115456.
 -------------------------------------------------------------------------------


 -------------------------------------------------------------------------------
 -                                                                             -
 -                           R E F E R E N C E S                               -
 -                                                                             -
 -------------------------------------------------------------------------------
 
 CP2K version 7.1, the CP2K developers group (2019).
 CP2K is freely available from https://www.cp2k.org/ .

 Schuett, Ole; Messmer, Peter; Hutter, Juerg; VandeVondele, Joost. 
 Electronic Structure Calculations on Graphics Processing Units, John
 Wiley & Sons, Ltd, 173-190 (2016). 
 GPU-Accelerated Sparse Matrix-Matrix Multiplication for
 Linear Scaling Density Functional Theory.
 https://dx.doi.org/10.1002/9781118670712.ch8

 Borstnik, U; VandeVondele, J; Weber, V; Hutter, J. 
 PARALLEL COMPUTING, 40 (5-6), 47-58 (2014). 
 Sparse matrix multiplication: The distributed block-compressed sparse
 row library.
 https://dx.doi.org/10.1016/j.parco.2014.03.012

 Hutter, J; Iannuzzi, M; Schiffmann, F; VandeVondele, J. 
 WIREs Comput Mol Sci., 4 (1), 15-25 (2014). 
 CP2K: atomistic simulations of condensed matter systems.
 https://dx.doi.org/10.1002/wcms.1159

 Marek, A; Blum, V; Johanni, R; Havu, V; Lang, B; Auckenthaler, T;
 Heinecke, A; Bungartz, H; Lederer, H. 
 Journal of Physics: Condensed Matter, 26 (21), (2014). 
 The ELPA library: scalable parallel eigenvalue solutions for
 electronic structure
 theory and computational science.
 https://dx.doi.org/10.1088/0953-8984/26/21/213201

 VandeVondele, J; Hutter, J. 
 JOURNAL OF CHEMICAL PHYSICS, 127 (11), 114105 (2007). 
 Gaussian basis sets for accurate calculations on molecular systems in
 gas and condensed phases.
 https://dx.doi.org/10.1063/1.2770708

 Krack, M. 
 THEORETICAL CHEMISTRY ACCOUNTS, 114 (1-3), 145-152 (2005). 
 Pseudopotentials for H to Kr optimized for gradient-corrected
 exchange-correlation functionals.
 https://dx.doi.org/10.1007/s00214-005-0655-y

 Frigo, M; Johnson, SG. 
 PROCEEDINGS OF THE IEEE, 93 (2), 216-231 (2005). 
 The design and implementation of FFTW3.
 https://dx.doi.org/10.1109/JPROC.2004.840301

 Lippert, G; Hutter, J; Parrinello, M. 
 THEORETICAL CHEMISTRY ACCOUNTS, 103 (2), 124-140 (1999). 
 The Gaussian and augmented-plane-wave density functional method for ab
 initio molecular dynamics simulations.
 https://dx.doi.org/10.1007/s002140050523

 Krack, M; Parrinello, M. 
 PHYSICAL CHEMISTRY CHEMICAL PHYSICS, 2 (10), 2105-2112 (2000). 
 All-electron ab-initio molecular dynamics.
 https://dx.doi.org/10.1039/b001167n

 Hartwigsen, C; Goedecker, S; Hutter, J. 
 PHYSICAL REVIEW B, 58 (7), 3641-3662 (1998). 
 Relativistic separable dual-space Gaussian pseudopotentials from H to Rn.
 https://dx.doi.org/10.1103/PhysRevB.58.3641

 Perdew, JP; Burke, K; Ernzerhof, M. 
 PHYSICAL REVIEW LETTERS, 77 (18), 3865-3868 (1996). 
 Generalized gradient approximation made simple.
 https://dx.doi.org/10.1103/PhysRevLett.77.3865

 Goedecker, S; Teter, M; Hutter, J. 
 PHYSICAL REVIEW B, 54 (3), 1703-1710 (1996). 
 Separable dual-space Gaussian pseudopotentials.
 https://dx.doi.org/10.1103/PhysRevB.54.1703


 -------------------------------------------------------------------------------
 -                                                                             -
 -                                T I M I N G                                  -
 -                                                                             -
 -------------------------------------------------------------------------------
 SUBROUTINE                       CALLS  ASD         SELF TIME        TOTAL TIME
                                MAXIMUM       AVERAGE  MAXIMUM  AVERAGE  MAXIMUM
 CP2K                                 1  1.0    0.018    0.028   72.067   72.068
 qs_energies                          1  2.0    0.000    0.000   71.825   71.825
 scf_env_do_scf                       1  3.0    0.000    0.000   69.967   69.972
 scf_env_do_scf_inner_loop           39  4.0    0.002    0.003   69.967   69.971
 qs_ks_update_qs_env                 40  5.0    0.000    0.000   41.475   41.922
 rebuild_ks_matrix                   40  6.0    0.000    0.000   41.467   41.914
 qs_ks_build_kohn_sham_matrix        40  7.0    0.006    0.008   41.467   41.914
 rs_pw_transfer                     561  9.5    0.005    0.007   29.651   33.443
 mp_waitall_1                     24687 11.5   15.008   19.655   15.008   19.655
 qs_rho_update_rho                   40  5.0    0.000    0.000   18.757   18.763
 calculate_rho_elec                  40  6.0    5.468    8.749   18.753   18.757
 sum_up_and_integrate                40  8.0    0.038    0.042   14.914   18.417
 integrate_v_rspace                  40  9.0    5.696    9.198   14.876   18.375
 rs_pw_transfer_PW2RS_250            80 11.0    7.346    7.809   14.415   16.441
 rs_pw_transfer_RS2PW_250            81 10.0    4.981    5.086   13.023   14.922
 density_rs2pw                       40  7.0    0.002    0.003   11.621   13.473
 integrate_vhg0_rspace               40  8.0    0.020    0.036    9.081   11.115
 potential_pw2rs                     40 10.0    0.005    0.006    9.174    9.177
 pw_transfer                        759  9.2    0.042    0.045    8.534    8.748
 fft_wrap_pw1pw2                    639 10.1    0.005    0.005    8.273    8.484
 prepare_gapw_den                    40  8.0    0.000    0.001    8.152    8.174
 put_rho0_on_grid                    40  9.0    0.060    0.069    8.150    8.171
 fft_wrap_pw1pw2_250                239 10.5    0.706    0.731    7.753    7.984
 qs_scf_loop_print                   39  5.0    0.199    6.573    7.047    7.714
 qs_vxc_create                       40  8.0    0.000    0.001    7.040    7.040
 xc_vxc_pw_create                    40  9.0    0.139    0.156    7.039    7.039
 fft3d_ps                           639 12.1    4.080    4.427    6.195    6.416
 mp_sync                             46  6.1    5.974    6.131    5.974    6.131
 xc_rho_set_and_dset_create          40 10.0    0.088    0.094    5.342    5.905
 xc_functional_eval                  40 11.0    0.000    0.000    4.044    4.581
 pbe_lda_eval                        40 12.0    4.043    4.581    4.043    4.581
 rs_grid_zero                       321  7.6    3.854    3.999    3.854    3.999
 pw_nn_compose_r                    320 10.5    1.746    1.817    2.500    2.894
 gspace_mixing                       38  5.0    0.056    0.063    2.694    2.695
 mp_isendrecv_dv                  21879 11.5    1.371    2.563    1.371    2.563
 mp_sum_dm                           40  6.0    1.016    1.707    1.016    1.707
 -------------------------------------------------------------------------------

 The number of warnings for this run is : 2
 
 -------------------------------------------------------------------------------
  **** **** ******  **  PROGRAM ENDED AT                 2022-12-12 19:34:54.782
 ***** ** ***  *** **   PROGRAM RAN ON                             node-c12f-002
 **    ****   ******    PROGRAM RAN BY                                   mmm0666
 ***** **    ** ** **   PROGRAM PROCESS ID                                 79597
  **** **  *******  **  PROGRAM STOPPED IN /lustre/home/mmm0666/cp2k_ksprint/he_
                                           grid/He5
