 DBCSR| CPU Multiplication driver                                           XSMM
 DBCSR| Multrec recursion limit                                              512
 DBCSR| Multiplication stack size                                           1000
 DBCSR| Maximum elements for images                                    UNLIMITED
 DBCSR| Multiplicative factor virtual images                                   1
 DBCSR| Use multiplication densification                                       T
 DBCSR| Multiplication size stacks                                             3
 DBCSR| Number of 3D layers                                               SINGLE
 DBCSR| Use MPI memory allocation                                              T
 DBCSR| Use RMA algorithm                                                      F
 DBCSR| Use Communication thread                                               T
 DBCSR| Communication thread load                                             87


  **** **** ******  **  PROGRAM STARTED AT               2022-12-15 19:45:02.024
 ***** ** ***  *** **   PROGRAM STARTED ON                         node-c12k-006
 **    ****   ******    PROGRAM STARTED BY                               mmm0666
 ***** **    ** ** **   PROGRAM PROCESS ID                                 65926
  **** **  *******  **  PROGRAM STARTED IN /lustre/home/mmm0666/cp2k_ksprint/he_
                                           grid_z_6/He11

 CP2K| version string:                                          CP2K version 7.1
 CP2K| source code revision number:                                  git:e635599
 CP2K| cp2kflags: libint fftw3 libxc elpa parallel mpi3 scalapack quip xsmm spgl
 CP2K|            ib
 CP2K| is freely available from                            https://www.cp2k.org/
 CP2K| Program compiled at                          Wed  8 Jan 12:34:35 GMT 2020
 CP2K| Program compiled on                                               login01
 CP2K| Program compiled for                                                local
 CP2K| Data directory path     /shared/ucl/apps/cp2k/7.1/gnu-4.9.2/cp2k-7.1/data
 CP2K| Input file name                                                 input.inp

 GLOBAL| Force Environment number                                              1
 GLOBAL| Basis set file name            /shared/ucl/apps/cp2k/7.1/gnu-4.9.2/cp2k
 GLOBAL| Potential file name            /shared/ucl/apps/cp2k/7.1/gnu-4.9.2/cp2k
 GLOBAL| MM Potential file name                                     MM_POTENTIAL
 GLOBAL| Coordinate file name                                            mol.xyz
 GLOBAL| Method name                                                        CP2K
 GLOBAL| Project name                                                       Gold
 GLOBAL| Preferred FFT library                                             FFTW3
 GLOBAL| Preferred diagonalization lib.                                     ELPA
 GLOBAL| Run type                                                         ENERGY
 GLOBAL| All-to-all communication in single precision                          F
 GLOBAL| FFTs using library dependent lengths                                  F
 GLOBAL| Global print level                                                  LOW
 GLOBAL| MPI I/O enabled                                                       T
 GLOBAL| Total number of message passing processes                            40
 GLOBAL| Number of threads for this process                                    1
 GLOBAL| This output is from process                                           0
 GLOBAL| CPU model name                 Intel(R) Xeon(R) Gold 6248 CPU @ 2.50GHz
 GLOBAL| CPUID                                                              1003

 MEMORY| system memory details [Kb]
 MEMORY|                        rank 0           min           max       average
 MEMORY| MemTotal            197599080     197599080     197599080     197599080
 MEMORY| MemFree             173108800     173108292     173108800     173108304
 MEMORY| Buffers                     0             0             0             0
 MEMORY| Cached               16361492      16361492      16361492      16361492
 MEMORY| Slab                  1348016       1348016       1348016       1348016
 MEMORY| SReclaimable           246136        246136        246136        246136
 MEMORY| MemLikelyFree       189716428     189715920     189716428     189715932


 GENERATE|  Preliminary Number of Bonds generated:                             0
 GENERATE|  Achieved consistency in connectivity generation.

 *******************************************************************************
 *******************************************************************************
 **                                                                           **
 **     #####                         ##              ##                      **
 **    ##   ##            ##          ##              ##                      **
 **   ##     ##                       ##            ######                    **
 **   ##     ##  ##   ##  ##   #####  ##  ##   ####   ##    #####    #####    **
 **   ##     ##  ##   ##  ##  ##      ## ##   ##      ##   ##   ##  ##   ##   **
 **   ##  ## ##  ##   ##  ##  ##      ####     ###    ##   ######   ######    **
 **    ##  ###   ##   ##  ##  ##      ## ##      ##   ##   ##       ##        **
 **     #######   #####   ##   #####  ##  ##  ####    ##    #####   ##        **
 **           ##                                                    ##        **
 **                                                                           **
 **                                                ... make the atoms dance   **
 **                                                                           **
 **            Copyright (C) by CP2K developers group (2000 - 2019)           **
 **                                                                           **
 *******************************************************************************

 *** WARNING in qs_environment.F:1310 :: More added MOs requested than ***
 *** available. The full set of unoccupied MOs will be used.           ***



 TOTAL NUMBERS AND MAXIMUM NUMBERS

  Total number of            - Atomic kinds:                                   2
                             - Atoms:                                         51
                             - Shell sets:                                    51
                             - Shells:                                       151
                             - Primitive Cartesian functions:                252
                             - Cartesian basis functions:                    501
                             - Spherical basis functions:                    451

  Maximum angular momentum of- Orbital basis functions:                        2
                             - Local part of the GTH pseudopotential:          2
                             - Non-local part of the GTH pseudopotential:      4


 SCF PARAMETERS         Density guess:                                    ATOMIC
                        --------------------------------------------------------
                        max_scf:                                             100
                        max_scf_history:                                       0
                        max_diis:                                              4
                        --------------------------------------------------------
                        eps_scf:                                        1.00E-08
                        eps_scf_history:                                0.00E+00
                        eps_diis:                                       1.00E-01
                        eps_eigval:                                     1.00E-05
                        --------------------------------------------------------
                        level_shift [a.u.]:                                 0.00
                        added MOs                                       175    0
                        --------------------------------------------------------
                        Mixing method:                              PULAY_MIXING
                                                charge density mixing in g-space
                        --------------------------------------------------------
                        Smear method:                                FERMI_DIRAC
                        Electronic temperature [K]:                       1000.0
                        Electronic temperature [a.u.]:                  3.17E-03
                        Accuracy threshold:                             1.00E-10
                        --------------------------------------------------------
                        Outer loop SCF in use 
                        No variables optimised in outer loop
                        eps_scf                                         1.00E-06
                        max_scf                                              100
                        Steepest descent optimization
                        step_size                                       5.00E-01

 Number of electrons:                                                        552
 Number of occupied orbitals:                                                276
 Number of molecular orbitals:                                               451

 Number of orbital functions:                                                451
 Number of independent orbital functions:                                    451

 Extrapolation method: initial_guess


 SCF WAVEFUNCTION OPTIMIZATION

  Step     Update method      Time    Convergence         Total energy    Change
  ------------------------------------------------------------------------------
     1 NoMix/Diag. 0.20E+00    1.3     0.31010761     -1662.5293019766 -1.66E+03
     2 Pulay/Diag. 0.20E+00    1.8     0.02783576     -1702.5692878138 -4.00E+01
     3 Pulay/Diag. 0.20E+00    1.8     0.05004570     -1677.8210341666  2.47E+01
     4 Pulay/Diag. 0.20E+00    1.8     0.01520061     -1664.6302997803  1.32E+01
     5 Pulay/Diag. 0.20E+00    1.8     0.00277599     -1663.3199307703  1.31E+00
     6 Pulay/Diag. 0.20E+00    1.8     0.00378220     -1663.2180617573  1.02E-01
     7 Pulay/Diag. 0.20E+00    1.9     0.00225543     -1663.2501787270 -3.21E-02
     8 Pulay/Diag. 0.20E+00    1.8     0.00050100     -1663.2733368920 -2.32E-02
     9 Pulay/Diag. 0.20E+00    1.8     0.00059224     -1663.2684404549  4.90E-03
    10 Pulay/Diag. 0.20E+00    1.8     0.00041992     -1663.2304478275  3.80E-02
    11 Pulay/Diag. 0.20E+00    1.8     0.00024727     -1663.2206493346  9.80E-03
    12 Pulay/Diag. 0.20E+00    1.8     0.00021275     -1663.2069094583  1.37E-02
    13 Pulay/Diag. 0.20E+00    1.8     0.00018433     -1663.1889293662  1.80E-02
    14 Pulay/Diag. 0.20E+00    1.8     0.00009186     -1663.1858949790  3.03E-03
    15 Pulay/Diag. 0.20E+00    1.8     0.00004096     -1663.1849848128  9.10E-04
    16 Pulay/Diag. 0.20E+00    1.8     0.00002180     -1663.1857182983 -7.33E-04
    17 Pulay/Diag. 0.20E+00    1.8     0.00001097     -1663.1853127235  4.06E-04
    18 Pulay/Diag. 0.20E+00    1.8     0.00000652     -1663.1854127162 -1.00E-04
    19 Pulay/Diag. 0.20E+00    1.8     0.00000443     -1663.1853083943  1.04E-04
    20 Pulay/Diag. 0.20E+00    1.8     0.00000316     -1663.1853050486  3.35E-06
    21 Pulay/Diag. 0.20E+00    1.8     0.00000159     -1663.1853214596 -1.64E-05
    22 Pulay/Diag. 0.20E+00    1.9     0.00000075     -1663.1853211257  3.34E-07
    23 Pulay/Diag. 0.20E+00    1.9     0.00000074     -1663.1852940953  2.70E-05
    24 Pulay/Diag. 0.20E+00    1.9     0.00000054     -1663.1852907293  3.37E-06
    25 Pulay/Diag. 0.20E+00    1.8     0.00000042     -1663.1852965779 -5.85E-06
    26 Pulay/Diag. 0.20E+00    1.8     0.00000040     -1663.1852900736  6.50E-06
    27 Pulay/Diag. 0.20E+00    1.8     0.00000031     -1663.1852817716  8.30E-06
    28 Pulay/Diag. 0.20E+00    1.9     0.00000039     -1663.1852775873  4.18E-06
    29 Pulay/Diag. 0.20E+00    1.8     0.00000039     -1663.1852729772  4.61E-06
    30 Pulay/Diag. 0.20E+00    1.8     0.00000019     -1663.1852673396  5.64E-06
    31 Pulay/Diag. 0.20E+00    1.8     0.00000009     -1663.1852656235  1.72E-06
    32 Pulay/Diag. 0.20E+00    1.8     0.00000007     -1663.1852639009  1.72E-06
    33 Pulay/Diag. 0.20E+00    1.8     0.00000006     -1663.1852629809  9.20E-07
    34 Pulay/Diag. 0.20E+00    1.8     0.00000002     -1663.1852645113 -1.53E-06
    35 Pulay/Diag. 0.20E+00    1.8     0.00000002     -1663.1852631846  1.33E-06
    36 Pulay/Diag. 0.20E+00    1.8     0.00000002     -1663.1852626720  5.13E-07
    37 Pulay/Diag. 0.20E+00    1.8     0.00000001     -1663.1852618493  8.23E-07
    38 Pulay/Diag. 0.20E+00    1.8     6.6738E-09     -1663.1852619429 -9.36E-08

  *** SCF run converged in    38 steps ***


  Electronic density on regular grids:       -551.9999999995        0.0000000005
  Core density on regular grids:              552.0000000000       -0.0000000000
  Hard and soft densities (Lebedev):           -0.0000000000       -0.0000000000
  Total Rho_soft + Rho1_hard - Rho1_soft     -551.9999999995
  Total charge density (r-space):               0.0000000005
  Total Rho_soft + Rho0_soft (g-space):         0.0000000005

  Overlap energy of the core charge distribution:               0.00000004542016
  Self energy of the core charge distribution:              -2898.30882843202517
  Core Hamiltonian energy:                                    924.10405526564500
  Hartree energy:                                             571.47348248014487
  Exchange-correlation energy:                               -260.43068543214338

  GAPW| Exc from hard and soft atomic rho1:                     0.00000000000000
  GAPW| local Eh = 1 center integrals:                          0.00000000000000
  Electronic entropic energy:                                  -0.02328586994551
  Fermi energy:                                                -0.06297058317647

  Total energy:                                             -1663.18526194291917

  outer SCF iter =    1 RMS gradient =   0.67E-08 energy =      -1663.1852619429
  outer SCF loop converged in   1 iterations or   38 steps


 ENERGY| Total FORCE_EVAL ( QS ) energy (a.u.):            -1663.185261834007179


 -------------------------------------------------------------------------------
 -                                                                             -
 -                                DBCSR STATISTICS                             -
 -                                                                             -
 -------------------------------------------------------------------------------
 COUNTER                                    TOTAL       BLAS       SMM       ACC
 flops     1 x     1 x     3                  228       0.0%    100.0%      0.0%
 flops     1 x     1 x    32                34048       0.0%    100.0%      0.0%
 flops     1 x     9 x     3                47196       0.0%    100.0%      0.0%
 flops     9 x     1 x     3                51300       0.0%    100.0%      0.0%
 flops     1 x     9 x    32              7047936       0.0%    100.0%      0.0%
 flops     9 x     1 x    32              7660800       0.0%    100.0%      0.0%
 flops     9 x     9 x     3             23546700       0.0%    100.0%      0.0%
 flops     9 x     9 x    32           3516307200       0.0%    100.0%      0.0%
 flops inhomo. stacks                           0       0.0%      0.0%      0.0%
 flops total                         3.554695E+09       0.0%    100.0%      0.0%
 flops max/rank                    136.658412E+06       0.0%    100.0%      0.0%
 matmuls inhomo. stacks                         0       0.0%      0.0%      0.0%
 matmuls total                             754680       0.0%    100.0%      0.0%
 number of processed stacks                 30780       0.0%    100.0%      0.0%
 average stack size                                     0.0      24.5       0.0
 marketing flops                     4.382887E+09
 -------------------------------------------------------------------------------
 # multiplications                             38
 max memory usage/rank             302.043136E+06
 # max total images/rank                        5
 # max 3D layers                                1
 # MPI messages exchanged                   50160
 MPI messages size (bytes):
  total size                       742.006848E+06
  min size                           0.000000E+00
  max size                          32.512000E+03
  average size                      14.792800E+03
 MPI breakdown and total messages size (bytes):
             size <=      128               12540                        0
       128 < size <=     8192                2508                  4935744
      8192 < size <=    32768               35112                737071104
     32768 < size <=   131072                   0                        0
    131072 < size <=  4194304                   0                        0
   4194304 < size <= 16777216                   0                        0
  16777216 < size                               0                        0
 -------------------------------------------------------------------------------

 *** WARNING in dbcsr_mm.F:295 :: Using a non-square number of MPI ranks ***
 *** might lead to poor performance. Used ranks: 40 Suggested: 36 81     ***

 -------------------------------------------------------------------------------
 -                                                                             -
 -                      DBCSR MESSAGE PASSING PERFORMANCE                      -
 -                                                                             -
 -------------------------------------------------------------------------------
 ROUTINE             CALLS      AVE VOLUME [Bytes]
 MP_Group               40
 MP_Bcast                9                     12.
 MP_Allreduce          304                     10.
 MP_Alltoall          1076                  26205.
 MP_Wait              2736
 MP_ISend             2964                   8465.
 MP_IRecv             2888                   7470.
 MP_Memory            7980
 -------------------------------------------------------------------------------

 MEMORY| Estimated peak process memory [MiB]                                 365

 -------------------------------------------------------------------------------
 -                                                                             -
 -                         MESSAGE PASSING PERFORMANCE                         -
 -                                                                             -
 -------------------------------------------------------------------------------

 ROUTINE             CALLS      AVE VOLUME [Bytes]
 MP_Group                6
 MP_Bcast              146                2441750.
 MP_Allreduce          725                  88684.
 MP_Sync                45
 MP_Alltoall           623                6252919.
 MP_SendRecv           624                 373248.
 MP_ISendRecv        21333                 706626.
 MP_Wait             21333
 MP_Recv                28                 115456.
 -------------------------------------------------------------------------------


 -------------------------------------------------------------------------------
 -                                                                             -
 -                           R E F E R E N C E S                               -
 -                                                                             -
 -------------------------------------------------------------------------------
 
 CP2K version 7.1, the CP2K developers group (2019).
 CP2K is freely available from https://www.cp2k.org/ .

 Schuett, Ole; Messmer, Peter; Hutter, Juerg; VandeVondele, Joost. 
 Electronic Structure Calculations on Graphics Processing Units, John
 Wiley & Sons, Ltd, 173-190 (2016). 
 GPU-Accelerated Sparse Matrix-Matrix Multiplication for
 Linear Scaling Density Functional Theory.
 https://dx.doi.org/10.1002/9781118670712.ch8

 Borstnik, U; VandeVondele, J; Weber, V; Hutter, J. 
 PARALLEL COMPUTING, 40 (5-6), 47-58 (2014). 
 Sparse matrix multiplication: The distributed block-compressed sparse
 row library.
 https://dx.doi.org/10.1016/j.parco.2014.03.012

 Hutter, J; Iannuzzi, M; Schiffmann, F; VandeVondele, J. 
 WIREs Comput Mol Sci., 4 (1), 15-25 (2014). 
 CP2K: atomistic simulations of condensed matter systems.
 https://dx.doi.org/10.1002/wcms.1159

 Marek, A; Blum, V; Johanni, R; Havu, V; Lang, B; Auckenthaler, T;
 Heinecke, A; Bungartz, H; Lederer, H. 
 Journal of Physics: Condensed Matter, 26 (21), (2014). 
 The ELPA library: scalable parallel eigenvalue solutions for
 electronic structure
 theory and computational science.
 https://dx.doi.org/10.1088/0953-8984/26/21/213201

 VandeVondele, J; Hutter, J. 
 JOURNAL OF CHEMICAL PHYSICS, 127 (11), 114105 (2007). 
 Gaussian basis sets for accurate calculations on molecular systems in
 gas and condensed phases.
 https://dx.doi.org/10.1063/1.2770708

 Krack, M. 
 THEORETICAL CHEMISTRY ACCOUNTS, 114 (1-3), 145-152 (2005). 
 Pseudopotentials for H to Kr optimized for gradient-corrected
 exchange-correlation functionals.
 https://dx.doi.org/10.1007/s00214-005-0655-y

 Frigo, M; Johnson, SG. 
 PROCEEDINGS OF THE IEEE, 93 (2), 216-231 (2005). 
 The design and implementation of FFTW3.
 https://dx.doi.org/10.1109/JPROC.2004.840301

 Lippert, G; Hutter, J; Parrinello, M. 
 THEORETICAL CHEMISTRY ACCOUNTS, 103 (2), 124-140 (1999). 
 The Gaussian and augmented-plane-wave density functional method for ab
 initio molecular dynamics simulations.
 https://dx.doi.org/10.1007/s002140050523

 Krack, M; Parrinello, M. 
 PHYSICAL CHEMISTRY CHEMICAL PHYSICS, 2 (10), 2105-2112 (2000). 
 All-electron ab-initio molecular dynamics.
 https://dx.doi.org/10.1039/b001167n

 Hartwigsen, C; Goedecker, S; Hutter, J. 
 PHYSICAL REVIEW B, 58 (7), 3641-3662 (1998). 
 Relativistic separable dual-space Gaussian pseudopotentials from H to Rn.
 https://dx.doi.org/10.1103/PhysRevB.58.3641

 Perdew, JP; Burke, K; Ernzerhof, M. 
 PHYSICAL REVIEW LETTERS, 77 (18), 3865-3868 (1996). 
 Generalized gradient approximation made simple.
 https://dx.doi.org/10.1103/PhysRevLett.77.3865

 Goedecker, S; Teter, M; Hutter, J. 
 PHYSICAL REVIEW B, 54 (3), 1703-1710 (1996). 
 Separable dual-space Gaussian pseudopotentials.
 https://dx.doi.org/10.1103/PhysRevB.54.1703


 -------------------------------------------------------------------------------
 -                                                                             -
 -                                T I M I N G                                  -
 -                                                                             -
 -------------------------------------------------------------------------------
 SUBROUTINE                       CALLS  ASD         SELF TIME        TOTAL TIME
                                MAXIMUM       AVERAGE  MAXIMUM  AVERAGE  MAXIMUM
 CP2K                                 1  1.0    0.018    0.032   71.073   71.075
 qs_energies                          1  2.0    0.000    0.000   70.823   70.823
 scf_env_do_scf                       1  3.0    0.000    0.000   68.951   68.956
 scf_env_do_scf_inner_loop           38  4.0    0.002    0.003   68.951   68.955
 qs_ks_update_qs_env                 39  5.0    0.000    0.000   40.825   41.293
 rebuild_ks_matrix                   39  6.0    0.000    0.000   40.818   41.285
 qs_ks_build_kohn_sham_matrix        39  7.0    0.006    0.008   40.818   41.285
 rs_pw_transfer                     547  9.5    0.005    0.006   29.247   33.074
 mp_waitall_1                     24069 11.5   14.916   21.205   14.916   21.205
 qs_rho_update_rho                   39  5.0    0.000    0.000   18.500   18.503
 calculate_rho_elec                  39  6.0    5.356    8.626   18.495   18.497
 sum_up_and_integrate                39  8.0    0.037    0.041   14.690   18.218
 integrate_v_rspace                  39  9.0    5.591    9.118   14.653   18.178
 rs_pw_transfer_PW2RS_250            78 11.0    7.114    8.170   14.237   16.341
 rs_pw_transfer_RS2PW_250            79 10.0    4.882    5.427   12.833   14.667
 density_rs2pw                       39  7.0    0.002    0.003   11.509   13.327
 integrate_vhg0_rspace               39  8.0    0.022    0.044    8.982   10.992
 potential_pw2rs                     39 10.0    0.006    0.006    9.056    9.059
 pw_transfer                        740  9.2    0.041    0.046    8.460    8.681
 fft_wrap_pw1pw2                    623 10.1    0.005    0.005    8.205    8.422
 prepare_gapw_den                    39  8.0    0.000    0.001    7.988    8.005
 put_rho0_on_grid                    39  9.0    0.059    0.066    7.985    8.002
 fft_wrap_pw1pw2_250                233 10.5    0.701    0.748    7.663    7.923
 qs_scf_loop_print                   38  5.0    0.197    6.575    7.031    7.732
 qs_vxc_create                       39  8.0    0.000    0.001    6.923    6.923
 xc_vxc_pw_create                    39  9.0    0.133    0.151    6.922    6.923
 fft3d_ps                           623 12.1    4.004    4.400    6.149    6.354
 mp_sync                             45  6.1    5.831    5.984    5.831    5.984
 xc_rho_set_and_dset_create          39 10.0    0.085    0.089    5.212    5.813
 xc_functional_eval                  39 11.0    0.000    0.000    3.952    4.528
 pbe_lda_eval                        39 12.0    3.952    4.528    3.952    4.528
 rs_grid_zero                       313  7.6    3.773    3.897    3.773    3.897
 pw_nn_compose_r                    312 10.5    1.696    1.766    2.446    2.878
 mp_isendrecv_dv                  21333 11.5    1.369    2.831    1.369    2.831
 gspace_mixing                       37  5.0    0.055    0.061    2.647    2.649
 mp_sum_dm                           39  6.0    1.153    1.883    1.153    1.883
 mp_alltoall_z22v                   623 14.1    1.277    1.502    1.277    1.502
 -------------------------------------------------------------------------------

 The number of warnings for this run is : 2
 
 -------------------------------------------------------------------------------
  **** **** ******  **  PROGRAM ENDED AT                 2022-12-15 19:46:13.503
 ***** ** ***  *** **   PROGRAM RAN ON                             node-c12k-006
 **    ****   ******    PROGRAM RAN BY                                   mmm0666
 ***** **    ** ** **   PROGRAM PROCESS ID                                 65926
  **** **  *******  **  PROGRAM STOPPED IN /lustre/home/mmm0666/cp2k_ksprint/he_
                                           grid_z_6/He11
