 DBCSR| CPU Multiplication driver                                           XSMM
 DBCSR| Multrec recursion limit                                              512
 DBCSR| Multiplication stack size                                           1000
 DBCSR| Maximum elements for images                                    UNLIMITED
 DBCSR| Multiplicative factor virtual images                                   1
 DBCSR| Use multiplication densification                                       T
 DBCSR| Multiplication size stacks                                             3
 DBCSR| Number of 3D layers                                               SINGLE
 DBCSR| Use MPI memory allocation                                              T
 DBCSR| Use RMA algorithm                                                      F
 DBCSR| Use Communication thread                                               T
 DBCSR| Communication thread load                                             87


  **** **** ******  **  PROGRAM STARTED AT               2022-12-13 00:33:30.614
 ***** ** ***  *** **   PROGRAM STARTED ON                         node-c12o-008
 **    ****   ******    PROGRAM STARTED BY                               mmm0666
 ***** **    ** ** **   PROGRAM PROCESS ID                                 58026
  **** **  *******  **  PROGRAM STARTED IN /lustre/home/mmm0666/cp2k_ksprint/he_
                                           grid/He15

 CP2K| version string:                                          CP2K version 7.1
 CP2K| source code revision number:                                  git:e635599
 CP2K| cp2kflags: libint fftw3 libxc elpa parallel mpi3 scalapack quip xsmm spgl
 CP2K|            ib
 CP2K| is freely available from                            https://www.cp2k.org/
 CP2K| Program compiled at                          Wed  8 Jan 12:34:35 GMT 2020
 CP2K| Program compiled on                                               login01
 CP2K| Program compiled for                                                local
 CP2K| Data directory path     /shared/ucl/apps/cp2k/7.1/gnu-4.9.2/cp2k-7.1/data
 CP2K| Input file name                                                 input.inp

 GLOBAL| Force Environment number                                              1
 GLOBAL| Basis set file name            /shared/ucl/apps/cp2k/7.1/gnu-4.9.2/cp2k
 GLOBAL| Potential file name            /shared/ucl/apps/cp2k/7.1/gnu-4.9.2/cp2k
 GLOBAL| MM Potential file name                                     MM_POTENTIAL
 GLOBAL| Coordinate file name                                            mol.xyz
 GLOBAL| Method name                                                        CP2K
 GLOBAL| Project name                                                       Gold
 GLOBAL| Preferred FFT library                                             FFTW3
 GLOBAL| Preferred diagonalization lib.                                     ELPA
 GLOBAL| Run type                                                         ENERGY
 GLOBAL| All-to-all communication in single precision                          F
 GLOBAL| FFTs using library dependent lengths                                  F
 GLOBAL| Global print level                                                  LOW
 GLOBAL| MPI I/O enabled                                                       T
 GLOBAL| Total number of message passing processes                            40
 GLOBAL| Number of threads for this process                                    1
 GLOBAL| This output is from process                                           0
 GLOBAL| CPU model name                 Intel(R) Xeon(R) Gold 6248 CPU @ 2.50GHz
 GLOBAL| CPUID                                                              1003

 MEMORY| system memory details [Kb]
 MEMORY|                        rank 0           min           max       average
 MEMORY| MemTotal            197730152     197730152     197730152     197730152
 MEMORY| MemFree             178329796     178329796     178329796     178329796
 MEMORY| Buffers                     0             0             0             0
 MEMORY| Cached               11886300      11886300      11886300      11886300
 MEMORY| Slab                   762284        762284        762284        762284
 MEMORY| SReclaimable           200344        200344        200344        200344
 MEMORY| MemLikelyFree       190416440     190416440     190416440     190416440


 GENERATE|  Preliminary Number of Bonds generated:                             0
 GENERATE|  Achieved consistency in connectivity generation.

 *******************************************************************************
 *******************************************************************************
 **                                                                           **
 **     #####                         ##              ##                      **
 **    ##   ##            ##          ##              ##                      **
 **   ##     ##                       ##            ######                    **
 **   ##     ##  ##   ##  ##   #####  ##  ##   ####   ##    #####    #####    **
 **   ##     ##  ##   ##  ##  ##      ## ##   ##      ##   ##   ##  ##   ##   **
 **   ##  ## ##  ##   ##  ##  ##      ####     ###    ##   ######   ######    **
 **    ##  ###   ##   ##  ##  ##      ## ##      ##   ##   ##       ##        **
 **     #######   #####   ##   #####  ##  ##  ####    ##    #####   ##        **
 **           ##                                                    ##        **
 **                                                                           **
 **                                                ... make the atoms dance   **
 **                                                                           **
 **            Copyright (C) by CP2K developers group (2000 - 2019)           **
 **                                                                           **
 *******************************************************************************

 *** WARNING in qs_environment.F:1310 :: More added MOs requested than ***
 *** available. The full set of unoccupied MOs will be used.           ***



 TOTAL NUMBERS AND MAXIMUM NUMBERS

  Total number of            - Atomic kinds:                                   2
                             - Atoms:                                         51
                             - Shell sets:                                    51
                             - Shells:                                       151
                             - Primitive Cartesian functions:                252
                             - Cartesian basis functions:                    501
                             - Spherical basis functions:                    451

  Maximum angular momentum of- Orbital basis functions:                        2
                             - Local part of the GTH pseudopotential:          2
                             - Non-local part of the GTH pseudopotential:      4


 SCF PARAMETERS         Density guess:                                    ATOMIC
                        --------------------------------------------------------
                        max_scf:                                             100
                        max_scf_history:                                       0
                        max_diis:                                              4
                        --------------------------------------------------------
                        eps_scf:                                        1.00E-08
                        eps_scf_history:                                0.00E+00
                        eps_diis:                                       1.00E-01
                        eps_eigval:                                     1.00E-05
                        --------------------------------------------------------
                        level_shift [a.u.]:                                 0.00
                        added MOs                                       175    0
                        --------------------------------------------------------
                        Mixing method:                              PULAY_MIXING
                                                charge density mixing in g-space
                        --------------------------------------------------------
                        Smear method:                                FERMI_DIRAC
                        Electronic temperature [K]:                       1000.0
                        Electronic temperature [a.u.]:                  3.17E-03
                        Accuracy threshold:                             1.00E-10
                        --------------------------------------------------------
                        Outer loop SCF in use 
                        No variables optimised in outer loop
                        eps_scf                                         1.00E-06
                        max_scf                                              100
                        Steepest descent optimization
                        step_size                                       5.00E-01

 Number of electrons:                                                        552
 Number of occupied orbitals:                                                276
 Number of molecular orbitals:                                               451

 Number of orbital functions:                                                451
 Number of independent orbital functions:                                    451

 Extrapolation method: initial_guess


 SCF WAVEFUNCTION OPTIMIZATION

  Step     Update method      Time    Convergence         Total energy    Change
  ------------------------------------------------------------------------------
     1 NoMix/Diag. 0.20E+00    1.3     0.31010915     -1662.5298032607 -1.66E+03
     2 Pulay/Diag. 0.20E+00    1.8     0.02783103     -1702.5728429058 -4.00E+01
     3 Pulay/Diag. 0.20E+00    1.8     0.05018907     -1677.8157783880  2.48E+01
     4 Pulay/Diag. 0.20E+00    1.8     0.01523786     -1664.6272097034  1.32E+01
     5 Pulay/Diag. 0.20E+00    1.8     0.00324950     -1663.3210996554  1.31E+00
     6 Pulay/Diag. 0.20E+00    1.8     0.00430160     -1663.2181312731  1.03E-01
     7 Pulay/Diag. 0.20E+00    1.9     0.00231722     -1663.2512073585 -3.31E-02
     8 Pulay/Diag. 0.20E+00    1.8     0.00055004     -1663.2740996599 -2.29E-02
     9 Pulay/Diag. 0.20E+00    1.8     0.00074350     -1663.2714337512  2.67E-03
    10 Pulay/Diag. 0.20E+00    1.8     0.00050494     -1663.2340345761  3.74E-02
    11 Pulay/Diag. 0.20E+00    1.8     0.00024837     -1663.2226425138  1.14E-02
    12 Pulay/Diag. 0.20E+00    1.8     0.00024836     -1663.2098326274  1.28E-02
    13 Pulay/Diag. 0.20E+00    1.8     0.00021699     -1663.1945740679  1.53E-02
    14 Pulay/Diag. 0.20E+00    1.8     0.00011293     -1663.1883334832  6.24E-03
    15 Pulay/Diag. 0.20E+00    1.8     0.00003843     -1663.1867892004  1.54E-03
    16 Pulay/Diag. 0.20E+00    1.8     0.00001839     -1663.1877033066 -9.14E-04
    17 Pulay/Diag. 0.20E+00    1.8     0.00001123     -1663.1872992985  4.04E-04
    18 Pulay/Diag. 0.20E+00    1.8     0.00000680     -1663.1873429262 -4.36E-05
    19 Pulay/Diag. 0.20E+00    1.8     0.00000543     -1663.1872851190  5.78E-05
    20 Pulay/Diag. 0.20E+00    1.8     0.00000318     -1663.1872369027  4.82E-05
    21 Pulay/Diag. 0.20E+00    1.9     0.00000172     -1663.1872479129 -1.10E-05
    22 Pulay/Diag. 0.20E+00    1.8     0.00000077     -1663.1872583409 -1.04E-05
    23 Pulay/Diag. 0.20E+00    1.8     0.00000061     -1663.1872273683  3.10E-05
    24 Pulay/Diag. 0.20E+00    1.8     0.00000064     -1663.1872156984  1.17E-05
    25 Pulay/Diag. 0.20E+00    1.8     0.00000062     -1663.1872218397 -6.14E-06
    26 Pulay/Diag. 0.20E+00    1.8     0.00000047     -1663.1872201001  1.74E-06
    27 Pulay/Diag. 0.20E+00    1.8     0.00000031     -1663.1872108231  9.28E-06
    28 Pulay/Diag. 0.20E+00    1.8     0.00000031     -1663.1872019975  8.83E-06
    29 Pulay/Diag. 0.20E+00    1.8     0.00000032     -1663.1871985443  3.45E-06
    30 Pulay/Diag. 0.20E+00    1.8     0.00000024     -1663.1871951429  3.40E-06
    31 Pulay/Diag. 0.20E+00    1.8     0.00000011     -1663.1871922889  2.85E-06
    32 Pulay/Diag. 0.20E+00    1.8     0.00000008     -1663.1871899944  2.29E-06
    33 Pulay/Diag. 0.20E+00    1.8     0.00000007     -1663.1871886551  1.34E-06
    34 Pulay/Diag. 0.20E+00    1.8     0.00000004     -1663.1871904523 -1.80E-06
    35 Pulay/Diag. 0.20E+00    1.8     0.00000003     -1663.1871889575  1.49E-06
    36 Pulay/Diag. 0.20E+00    1.8     0.00000003     -1663.1871880516  9.06E-07
    37 Pulay/Diag. 0.20E+00    1.8     0.00000003     -1663.1871874697  5.82E-07
    38 Pulay/Diag. 0.20E+00    1.8     0.00000001     -1663.1871872622  2.08E-07
    39 Pulay/Diag. 0.20E+00    1.8     0.00000001     -1663.1871871421  1.20E-07
    40 Pulay/Diag. 0.20E+00    1.8     6.8820E-09     -1663.1871870447  9.73E-08

  *** SCF run converged in    40 steps ***


  Electronic density on regular grids:       -551.9999999995        0.0000000005
  Core density on regular grids:              552.0000000000       -0.0000000000
  Hard and soft densities (Lebedev):           -0.0000000000       -0.0000000000
  Total Rho_soft + Rho1_hard - Rho1_soft     -551.9999999995
  Total charge density (r-space):               0.0000000005
  Total Rho_soft + Rho0_soft (g-space):         0.0000000005

  Overlap energy of the core charge distribution:               0.00000004542016
  Self energy of the core charge distribution:              -2898.30882843202517
  Core Hamiltonian energy:                                    924.08833303732013
  Hartree energy:                                             571.48279117262973
  Exchange-correlation energy:                               -260.42620295107628

  GAPW| Exc from hard and soft atomic rho1:                     0.00000000000000
  GAPW| local Eh = 1 center integrals:                          0.00000000000000
  Electronic entropic energy:                                  -0.02327991693606
  Fermi energy:                                                -0.06283163441829

  Total energy:                                             -1663.18718704473486

  outer SCF iter =    1 RMS gradient =   0.69E-08 energy =      -1663.1871870447
  outer SCF loop converged in   1 iterations or   40 steps


 ENERGY| Total FORCE_EVAL ( QS ) energy (a.u.):            -1663.187186854278707


 -------------------------------------------------------------------------------
 -                                                                             -
 -                                DBCSR STATISTICS                             -
 -                                                                             -
 -------------------------------------------------------------------------------
 COUNTER                                    TOTAL       BLAS       SMM       ACC
 flops     1 x     1 x     3                  240       0.0%    100.0%      0.0%
 flops     1 x     1 x    32                35840       0.0%    100.0%      0.0%
 flops     1 x     9 x     3                54000       0.0%    100.0%      0.0%
 flops     9 x     1 x     3                54000       0.0%    100.0%      0.0%
 flops     1 x     9 x    32              8064000       0.0%    100.0%      0.0%
 flops     9 x     1 x    32              8064000       0.0%    100.0%      0.0%
 flops     9 x     9 x     3             24786000       0.0%    100.0%      0.0%
 flops     9 x     9 x    32           3701376000       0.0%    100.0%      0.0%
 flops inhomo. stacks                           0       0.0%      0.0%      0.0%
 flops total                         3.742434E+09       0.0%    100.0%      0.0%
 flops max/rank                    143.850960E+06       0.0%    100.0%      0.0%
 matmuls inhomo. stacks                         0       0.0%      0.0%      0.0%
 matmuls total                             795600       0.0%    100.0%      0.0%
 number of processed stacks                 32400       0.0%    100.0%      0.0%
 average stack size                                     0.0      24.6       0.0
 marketing flops                     4.613137E+09
 -------------------------------------------------------------------------------
 # multiplications                             40
 max memory usage/rank             301.535232E+06
 # max total images/rank                        5
 # max 3D layers                                1
 # MPI messages exchanged                   52800
 MPI messages size (bytes):
  total size                       781.059840E+06
  min size                           0.000000E+00
  max size                          32.512000E+03
  average size                      14.792800E+03
 MPI breakdown and total messages size (bytes):
             size <=      128               13200                        0
       128 < size <=     8192                2640                  5195520
      8192 < size <=    32768               36960                775864320
     32768 < size <=   131072                   0                        0
    131072 < size <=  4194304                   0                        0
   4194304 < size <= 16777216                   0                        0
  16777216 < size                               0                        0
 -------------------------------------------------------------------------------

 *** WARNING in dbcsr_mm.F:295 :: Using a non-square number of MPI ranks ***
 *** might lead to poor performance. Used ranks: 40 Suggested: 36 81     ***

 -------------------------------------------------------------------------------
 -                                                                             -
 -                      DBCSR MESSAGE PASSING PERFORMANCE                      -
 -                                                                             -
 -------------------------------------------------------------------------------
 ROUTINE             CALLS      AVE VOLUME [Bytes]
 MP_Group               42
 MP_Bcast                9                     12.
 MP_Allreduce          318                     10.
 MP_Alltoall          1132                  26203.
 MP_Wait              2880
 MP_ISend             3120                   8465.
 MP_IRecv             3040                   7470.
 MP_Memory            8400
 -------------------------------------------------------------------------------

 MEMORY| Estimated peak process memory [MiB]                                 365

 -------------------------------------------------------------------------------
 -                                                                             -
 -                         MESSAGE PASSING PERFORMANCE                         -
 -                                                                             -
 -------------------------------------------------------------------------------

 ROUTINE             CALLS      AVE VOLUME [Bytes]
 MP_Group                6
 MP_Bcast              150                2376657.
 MP_Allreduce          759                  88999.
 MP_Sync                47
 MP_Alltoall           655                6253645.
 MP_SendRecv           656                 373248.
 MP_ISendRecv        22425                 706489.
 MP_Wait             22425
 MP_Recv                28                 115456.
 -------------------------------------------------------------------------------


 -------------------------------------------------------------------------------
 -                                                                             -
 -                           R E F E R E N C E S                               -
 -                                                                             -
 -------------------------------------------------------------------------------
 
 CP2K version 7.1, the CP2K developers group (2019).
 CP2K is freely available from https://www.cp2k.org/ .

 Schuett, Ole; Messmer, Peter; Hutter, Juerg; VandeVondele, Joost. 
 Electronic Structure Calculations on Graphics Processing Units, John
 Wiley & Sons, Ltd, 173-190 (2016). 
 GPU-Accelerated Sparse Matrix-Matrix Multiplication for
 Linear Scaling Density Functional Theory.
 https://dx.doi.org/10.1002/9781118670712.ch8

 Borstnik, U; VandeVondele, J; Weber, V; Hutter, J. 
 PARALLEL COMPUTING, 40 (5-6), 47-58 (2014). 
 Sparse matrix multiplication: The distributed block-compressed sparse
 row library.
 https://dx.doi.org/10.1016/j.parco.2014.03.012

 Hutter, J; Iannuzzi, M; Schiffmann, F; VandeVondele, J. 
 WIREs Comput Mol Sci., 4 (1), 15-25 (2014). 
 CP2K: atomistic simulations of condensed matter systems.
 https://dx.doi.org/10.1002/wcms.1159

 Marek, A; Blum, V; Johanni, R; Havu, V; Lang, B; Auckenthaler, T;
 Heinecke, A; Bungartz, H; Lederer, H. 
 Journal of Physics: Condensed Matter, 26 (21), (2014). 
 The ELPA library: scalable parallel eigenvalue solutions for
 electronic structure
 theory and computational science.
 https://dx.doi.org/10.1088/0953-8984/26/21/213201

 VandeVondele, J; Hutter, J. 
 JOURNAL OF CHEMICAL PHYSICS, 127 (11), 114105 (2007). 
 Gaussian basis sets for accurate calculations on molecular systems in
 gas and condensed phases.
 https://dx.doi.org/10.1063/1.2770708

 Krack, M. 
 THEORETICAL CHEMISTRY ACCOUNTS, 114 (1-3), 145-152 (2005). 
 Pseudopotentials for H to Kr optimized for gradient-corrected
 exchange-correlation functionals.
 https://dx.doi.org/10.1007/s00214-005-0655-y

 Frigo, M; Johnson, SG. 
 PROCEEDINGS OF THE IEEE, 93 (2), 216-231 (2005). 
 The design and implementation of FFTW3.
 https://dx.doi.org/10.1109/JPROC.2004.840301

 Lippert, G; Hutter, J; Parrinello, M. 
 THEORETICAL CHEMISTRY ACCOUNTS, 103 (2), 124-140 (1999). 
 The Gaussian and augmented-plane-wave density functional method for ab
 initio molecular dynamics simulations.
 https://dx.doi.org/10.1007/s002140050523

 Krack, M; Parrinello, M. 
 PHYSICAL CHEMISTRY CHEMICAL PHYSICS, 2 (10), 2105-2112 (2000). 
 All-electron ab-initio molecular dynamics.
 https://dx.doi.org/10.1039/b001167n

 Hartwigsen, C; Goedecker, S; Hutter, J. 
 PHYSICAL REVIEW B, 58 (7), 3641-3662 (1998). 
 Relativistic separable dual-space Gaussian pseudopotentials from H to Rn.
 https://dx.doi.org/10.1103/PhysRevB.58.3641

 Perdew, JP; Burke, K; Ernzerhof, M. 
 PHYSICAL REVIEW LETTERS, 77 (18), 3865-3868 (1996). 
 Generalized gradient approximation made simple.
 https://dx.doi.org/10.1103/PhysRevLett.77.3865

 Goedecker, S; Teter, M; Hutter, J. 
 PHYSICAL REVIEW B, 54 (3), 1703-1710 (1996). 
 Separable dual-space Gaussian pseudopotentials.
 https://dx.doi.org/10.1103/PhysRevB.54.1703


 -------------------------------------------------------------------------------
 -                                                                             -
 -                                T I M I N G                                  -
 -                                                                             -
 -------------------------------------------------------------------------------
 SUBROUTINE                       CALLS  ASD         SELF TIME        TOTAL TIME
                                MAXIMUM       AVERAGE  MAXIMUM  AVERAGE  MAXIMUM
 CP2K                                 1  1.0    0.017    0.025   73.888   73.889
 qs_energies                          1  2.0    0.000    0.000   73.635   73.636
 scf_env_do_scf                       1  3.0    0.000    0.000   71.752   71.755
 scf_env_do_scf_inner_loop           40  4.0    0.002    0.004   71.751   71.755
 qs_ks_update_qs_env                 41  5.0    0.000    0.000   42.332   42.763
 rebuild_ks_matrix                   41  6.0    0.000    0.000   42.321   42.752
 qs_ks_build_kohn_sham_matrix        41  7.0    0.006    0.008   42.321   42.752
 rs_pw_transfer                     575  9.5    0.005    0.007   30.130   34.119
 mp_waitall_1                     25305 11.5   15.072   19.971   15.072   19.971
 qs_rho_update_rho                   41  5.0    0.000    0.000   19.178   19.181
 calculate_rho_elec                  41  6.0    5.599    8.965   19.173   19.175
 sum_up_and_integrate                41  8.0    0.039    0.043   15.170   18.733
 integrate_v_rspace                  41  9.0    5.836    9.398   15.130   18.690
 rs_pw_transfer_PW2RS_250            82 11.0    7.634    7.875   14.679   16.944
 rs_pw_transfer_RS2PW_250            83 10.0    5.078    5.172   13.249   15.207
 density_rs2pw                       41  7.0    0.002    0.003   11.858   13.743
 integrate_vhg0_rspace               41  8.0    0.021    0.036    9.279   11.423
 potential_pw2rs                     41 10.0    0.006    0.006    9.289    9.291
 pw_transfer                        778  9.2    0.044    0.048    8.789    8.996
 fft_wrap_pw1pw2                    655 10.1    0.005    0.006    8.521    8.723
 prepare_gapw_den                    41  8.0    0.000    0.001    8.335    8.352
 put_rho0_on_grid                    41  9.0    0.062    0.069    8.333    8.350
 fft_wrap_pw1pw2_250                245 10.5    0.722    0.754    7.997    8.221
 qs_scf_loop_print                   40  5.0    0.210    6.959    7.429    8.097
 qs_vxc_create                       41  8.0    0.000    0.001    7.199    7.200
 xc_vxc_pw_create                    41  9.0    0.145    0.162    7.198    7.199
 fft3d_ps                           655 12.1    4.192    4.556    6.393    6.611
 mp_sync                             47  6.1    6.166    6.327    6.166    6.327
 xc_rho_set_and_dset_create          41 10.0    0.090    0.094    5.473    6.015
 xc_functional_eval                  41 11.0    0.000    0.000    4.143    4.657
 pbe_lda_eval                        41 12.0    4.142    4.656    4.142    4.656
 rs_grid_zero                       329  7.6    3.984    4.090    3.984    4.090
 pw_nn_compose_r                    328 10.5    1.792    1.862    2.546    2.943
 gspace_mixing                       39  5.0    0.058    0.064    2.781    2.782
 mp_isendrecv_dv                  22425 11.5    1.365    2.747    1.365    2.747
 mp_sum_dm                           41  6.0    1.210    1.903    1.210    1.903
 mp_alltoall_z22v                   655 14.1    1.302    1.500    1.302    1.500
 -------------------------------------------------------------------------------

 The number of warnings for this run is : 2
 
 -------------------------------------------------------------------------------
  **** **** ******  **  PROGRAM ENDED AT                 2022-12-13 00:34:45.011
 ***** ** ***  *** **   PROGRAM RAN ON                             node-c12o-008
 **    ****   ******    PROGRAM RAN BY                                   mmm0666
 ***** **    ** ** **   PROGRAM PROCESS ID                                 58026
  **** **  *******  **  PROGRAM STOPPED IN /lustre/home/mmm0666/cp2k_ksprint/he_
                                           grid/He15
