 DBCSR| CPU Multiplication driver                                           XSMM
 DBCSR| Multrec recursion limit                                              512
 DBCSR| Multiplication stack size                                           1000
 DBCSR| Maximum elements for images                                    UNLIMITED
 DBCSR| Multiplicative factor virtual images                                   1
 DBCSR| Use multiplication densification                                       T
 DBCSR| Multiplication size stacks                                             3
 DBCSR| Number of 3D layers                                               SINGLE
 DBCSR| Use MPI memory allocation                                              T
 DBCSR| Use RMA algorithm                                                      F
 DBCSR| Use Communication thread                                               T
 DBCSR| Communication thread load                                             87


  **** **** ******  **  PROGRAM STARTED AT               2022-12-15 19:25:59.029
 ***** ** ***  *** **   PROGRAM STARTED ON                         node-c12a-002
 **    ****   ******    PROGRAM STARTED BY                               mmm0666
 ***** **    ** ** **   PROGRAM PROCESS ID                                 19411
  **** **  *******  **  PROGRAM STARTED IN /lustre/home/mmm0666/cp2k_ksprint/he_
                                           grid_z_6/He3

 CP2K| version string:                                          CP2K version 7.1
 CP2K| source code revision number:                                  git:e635599
 CP2K| cp2kflags: libint fftw3 libxc elpa parallel mpi3 scalapack quip xsmm spgl
 CP2K|            ib
 CP2K| is freely available from                            https://www.cp2k.org/
 CP2K| Program compiled at                          Wed  8 Jan 12:34:35 GMT 2020
 CP2K| Program compiled on                                               login01
 CP2K| Program compiled for                                                local
 CP2K| Data directory path     /shared/ucl/apps/cp2k/7.1/gnu-4.9.2/cp2k-7.1/data
 CP2K| Input file name                                                 input.inp

 GLOBAL| Force Environment number                                              1
 GLOBAL| Basis set file name            /shared/ucl/apps/cp2k/7.1/gnu-4.9.2/cp2k
 GLOBAL| Potential file name            /shared/ucl/apps/cp2k/7.1/gnu-4.9.2/cp2k
 GLOBAL| MM Potential file name                                     MM_POTENTIAL
 GLOBAL| Coordinate file name                                            mol.xyz
 GLOBAL| Method name                                                        CP2K
 GLOBAL| Project name                                                       Gold
 GLOBAL| Preferred FFT library                                             FFTW3
 GLOBAL| Preferred diagonalization lib.                                     ELPA
 GLOBAL| Run type                                                         ENERGY
 GLOBAL| All-to-all communication in single precision                          F
 GLOBAL| FFTs using library dependent lengths                                  F
 GLOBAL| Global print level                                                  LOW
 GLOBAL| MPI I/O enabled                                                       T
 GLOBAL| Total number of message passing processes                            40
 GLOBAL| Number of threads for this process                                    1
 GLOBAL| This output is from process                                           0
 GLOBAL| CPU model name                 Intel(R) Xeon(R) Gold 6248 CPU @ 2.50GHz
 GLOBAL| CPUID                                                              1003

 MEMORY| system memory details [Kb]
 MEMORY|                        rank 0           min           max       average
 MEMORY| MemTotal            197730152     197730152     197730152     197730152
 MEMORY| MemFree             177755196     177755196     177755196     177755196
 MEMORY| Buffers                     0             0             0             0
 MEMORY| Cached               12262400      12262400      12262400      12262400
 MEMORY| Slab                   937772        937772        937772        937772
 MEMORY| SReclaimable           224568        224568        224568        224568
 MEMORY| MemLikelyFree       190242164     190242164     190242164     190242164


 GENERATE|  Preliminary Number of Bonds generated:                             0
 GENERATE|  Achieved consistency in connectivity generation.

 *******************************************************************************
 *******************************************************************************
 **                                                                           **
 **     #####                         ##              ##                      **
 **    ##   ##            ##          ##              ##                      **
 **   ##     ##                       ##            ######                    **
 **   ##     ##  ##   ##  ##   #####  ##  ##   ####   ##    #####    #####    **
 **   ##     ##  ##   ##  ##  ##      ## ##   ##      ##   ##   ##  ##   ##   **
 **   ##  ## ##  ##   ##  ##  ##      ####     ###    ##   ######   ######    **
 **    ##  ###   ##   ##  ##  ##      ## ##      ##   ##   ##       ##        **
 **     #######   #####   ##   #####  ##  ##  ####    ##    #####   ##        **
 **           ##                                                    ##        **
 **                                                                           **
 **                                                ... make the atoms dance   **
 **                                                                           **
 **            Copyright (C) by CP2K developers group (2000 - 2019)           **
 **                                                                           **
 *******************************************************************************

 *** WARNING in qs_environment.F:1310 :: More added MOs requested than ***
 *** available. The full set of unoccupied MOs will be used.           ***



 TOTAL NUMBERS AND MAXIMUM NUMBERS

  Total number of            - Atomic kinds:                                   2
                             - Atoms:                                         51
                             - Shell sets:                                    51
                             - Shells:                                       151
                             - Primitive Cartesian functions:                252
                             - Cartesian basis functions:                    501
                             - Spherical basis functions:                    451

  Maximum angular momentum of- Orbital basis functions:                        2
                             - Local part of the GTH pseudopotential:          2
                             - Non-local part of the GTH pseudopotential:      4


 SCF PARAMETERS         Density guess:                                    ATOMIC
                        --------------------------------------------------------
                        max_scf:                                             100
                        max_scf_history:                                       0
                        max_diis:                                              4
                        --------------------------------------------------------
                        eps_scf:                                        1.00E-08
                        eps_scf_history:                                0.00E+00
                        eps_diis:                                       1.00E-01
                        eps_eigval:                                     1.00E-05
                        --------------------------------------------------------
                        level_shift [a.u.]:                                 0.00
                        added MOs                                       175    0
                        --------------------------------------------------------
                        Mixing method:                              PULAY_MIXING
                                                charge density mixing in g-space
                        --------------------------------------------------------
                        Smear method:                                FERMI_DIRAC
                        Electronic temperature [K]:                       1000.0
                        Electronic temperature [a.u.]:                  3.17E-03
                        Accuracy threshold:                             1.00E-10
                        --------------------------------------------------------
                        Outer loop SCF in use 
                        No variables optimised in outer loop
                        eps_scf                                         1.00E-06
                        max_scf                                              100
                        Steepest descent optimization
                        step_size                                       5.00E-01

 Number of electrons:                                                        552
 Number of occupied orbitals:                                                276
 Number of molecular orbitals:                                               451

 Number of orbital functions:                                                451
 Number of independent orbital functions:                                    451

 Extrapolation method: initial_guess


 SCF WAVEFUNCTION OPTIMIZATION

  Step     Update method      Time    Convergence         Total energy    Change
  ------------------------------------------------------------------------------
     1 NoMix/Diag. 0.20E+00    1.3     0.31010762     -1662.5293049304 -1.66E+03
     2 Pulay/Diag. 0.20E+00    1.7     0.02783583     -1702.5693392988 -4.00E+01
     3 Pulay/Diag. 0.20E+00    1.7     0.05004505     -1677.8209955683  2.47E+01
     4 Pulay/Diag. 0.20E+00    1.7     0.01520064     -1664.6302092888  1.32E+01
     5 Pulay/Diag. 0.20E+00    1.9     0.00277821     -1663.3199223253  1.31E+00
     6 Pulay/Diag. 0.20E+00    1.8     0.00378472     -1663.2180891722  1.02E-01
     7 Pulay/Diag. 0.20E+00    1.8     0.00225341     -1663.2502008326 -3.21E-02
     8 Pulay/Diag. 0.20E+00    1.9     0.00050083     -1663.2733591052 -2.32E-02
     9 Pulay/Diag. 0.20E+00    1.9     0.00059285     -1663.2684731162  4.89E-03
    10 Pulay/Diag. 0.20E+00    2.1     0.00042059     -1663.2304737367  3.80E-02
    11 Pulay/Diag. 0.20E+00    1.8     0.00024788     -1663.2206722208  9.80E-03
    12 Pulay/Diag. 0.20E+00    1.8     0.00021701     -1663.2069300086  1.37E-02
    13 Pulay/Diag. 0.20E+00    1.8     0.00018327     -1663.1889523130  1.80E-02
    14 Pulay/Diag. 0.20E+00    1.8     0.00009186     -1663.1859102060  3.04E-03
    15 Pulay/Diag. 0.20E+00    2.0     0.00004109     -1663.1849996543  9.11E-04
    16 Pulay/Diag. 0.20E+00    1.8     0.00002184     -1663.1857330970 -7.33E-04
    17 Pulay/Diag. 0.20E+00    1.8     0.00001099     -1663.1853272905  4.06E-04
    18 Pulay/Diag. 0.20E+00    1.8     0.00000655     -1663.1854272693 -1.00E-04
    19 Pulay/Diag. 0.20E+00    1.8     0.00000440     -1663.1853229018  1.04E-04
    20 Pulay/Diag. 0.20E+00    1.8     0.00000317     -1663.1853194240  3.48E-06
    21 Pulay/Diag. 0.20E+00    1.8     0.00000159     -1663.1853357414 -1.63E-05
    22 Pulay/Diag. 0.20E+00    1.8     0.00000075     -1663.1853354616  2.80E-07
    23 Pulay/Diag. 0.20E+00    1.8     0.00000074     -1663.1853083454  2.71E-05
    24 Pulay/Diag. 0.20E+00    1.8     0.00000054     -1663.1853049554  3.39E-06
    25 Pulay/Diag. 0.20E+00    1.8     0.00000042     -1663.1853108200 -5.86E-06
    26 Pulay/Diag. 0.20E+00    1.8     0.00000041     -1663.1853043038  6.52E-06
    27 Pulay/Diag. 0.20E+00    1.8     0.00000031     -1663.1852960002  8.30E-06
    28 Pulay/Diag. 0.20E+00    1.9     0.00000039     -1663.1852917803  4.22E-06
    29 Pulay/Diag. 0.20E+00    1.8     0.00000040     -1663.1852871584  4.62E-06
    30 Pulay/Diag. 0.20E+00    1.8     0.00000019     -1663.1852815211  5.64E-06
    31 Pulay/Diag. 0.20E+00    1.8     0.00000009     -1663.1852797953  1.73E-06
    32 Pulay/Diag. 0.20E+00    1.8     0.00000007     -1663.1852780713  1.72E-06
    33 Pulay/Diag. 0.20E+00    1.8     0.00000006     -1663.1852771485  9.23E-07
    34 Pulay/Diag. 0.20E+00    1.8     0.00000002     -1663.1852786810 -1.53E-06
    35 Pulay/Diag. 0.20E+00    1.8     0.00000002     -1663.1852773534  1.33E-06
    36 Pulay/Diag. 0.20E+00    1.8     0.00000002     -1663.1852768408  5.13E-07
    37 Pulay/Diag. 0.20E+00    1.8     0.00000001     -1663.1852760178  8.23E-07
    38 Pulay/Diag. 0.20E+00    1.8     6.6657E-09     -1663.1852761114 -9.36E-08

  *** SCF run converged in    38 steps ***


  Electronic density on regular grids:       -551.9999999995        0.0000000005
  Core density on regular grids:              552.0000000000       -0.0000000000
  Hard and soft densities (Lebedev):           -0.0000000000       -0.0000000000
  Total Rho_soft + Rho1_hard - Rho1_soft     -551.9999999995
  Total charge density (r-space):               0.0000000005
  Total Rho_soft + Rho0_soft (g-space):         0.0000000005

  Overlap energy of the core charge distribution:               0.00000004542016
  Self energy of the core charge distribution:              -2898.30882843202517
  Core Hamiltonian energy:                                    924.10396206605526
  Hartree energy:                                             571.47353712950439
  Exchange-correlation energy:                               -260.43066104625746

  GAPW| Exc from hard and soft atomic rho1:                     0.00000000000000
  GAPW| local Eh = 1 center integrals:                          0.00000000000000
  Electronic entropic energy:                                  -0.02328587410022
  Fermi energy:                                                -0.06296998779863

  Total energy:                                             -1663.18527611141826

  outer SCF iter =    1 RMS gradient =   0.67E-08 energy =      -1663.1852761114
  outer SCF loop converged in   1 iterations or   38 steps


 ENERGY| Total FORCE_EVAL ( QS ) energy (a.u.):            -1663.185276002398041


 -------------------------------------------------------------------------------
 -                                                                             -
 -                                DBCSR STATISTICS                             -
 -                                                                             -
 -------------------------------------------------------------------------------
 COUNTER                                    TOTAL       BLAS       SMM       ACC
 flops     1 x     1 x     3                  228       0.0%    100.0%      0.0%
 flops     1 x     1 x    32                34048       0.0%    100.0%      0.0%
 flops     1 x     9 x     3                47196       0.0%    100.0%      0.0%
 flops     9 x     1 x     3                51300       0.0%    100.0%      0.0%
 flops     1 x     9 x    32              7047936       0.0%    100.0%      0.0%
 flops     9 x     1 x    32              7660800       0.0%    100.0%      0.0%
 flops     9 x     9 x     3             23546700       0.0%    100.0%      0.0%
 flops     9 x     9 x    32           3516307200       0.0%    100.0%      0.0%
 flops inhomo. stacks                           0       0.0%      0.0%      0.0%
 flops total                         3.554695E+09       0.0%    100.0%      0.0%
 flops max/rank                    136.658412E+06       0.0%    100.0%      0.0%
 matmuls inhomo. stacks                         0       0.0%      0.0%      0.0%
 matmuls total                             754680       0.0%    100.0%      0.0%
 number of processed stacks                 30780       0.0%    100.0%      0.0%
 average stack size                                     0.0      24.5       0.0
 marketing flops                     4.382887E+09
 -------------------------------------------------------------------------------
 # multiplications                             38
 max memory usage/rank             302.174208E+06
 # max total images/rank                        5
 # max 3D layers                                1
 # MPI messages exchanged                   50160
 MPI messages size (bytes):
  total size                       742.006848E+06
  min size                           0.000000E+00
  max size                          32.512000E+03
  average size                      14.792800E+03
 MPI breakdown and total messages size (bytes):
             size <=      128               12540                        0
       128 < size <=     8192                2508                  4935744
      8192 < size <=    32768               35112                737071104
     32768 < size <=   131072                   0                        0
    131072 < size <=  4194304                   0                        0
   4194304 < size <= 16777216                   0                        0
  16777216 < size                               0                        0
 -------------------------------------------------------------------------------

 *** WARNING in dbcsr_mm.F:295 :: Using a non-square number of MPI ranks ***
 *** might lead to poor performance. Used ranks: 40 Suggested: 36 81     ***

 -------------------------------------------------------------------------------
 -                                                                             -
 -                      DBCSR MESSAGE PASSING PERFORMANCE                      -
 -                                                                             -
 -------------------------------------------------------------------------------
 ROUTINE             CALLS      AVE VOLUME [Bytes]
 MP_Group               40
 MP_Bcast                9                     12.
 MP_Allreduce          304                     10.
 MP_Alltoall          1076                  26205.
 MP_Wait              2736
 MP_ISend             2964                   8465.
 MP_IRecv             2888                   7470.
 MP_Memory            7980
 -------------------------------------------------------------------------------

 MEMORY| Estimated peak process memory [MiB]                                 366

 -------------------------------------------------------------------------------
 -                                                                             -
 -                         MESSAGE PASSING PERFORMANCE                         -
 -                                                                             -
 -------------------------------------------------------------------------------

 ROUTINE             CALLS      AVE VOLUME [Bytes]
 MP_Group                6
 MP_Bcast              146                2441763.
 MP_Allreduce          725                  88684.
 MP_Sync                45
 MP_Alltoall           623                6252919.
 MP_SendRecv           624                 373248.
 MP_ISendRecv        21333                 706626.
 MP_Wait             21333
 MP_Recv                28                 115456.
 -------------------------------------------------------------------------------


 -------------------------------------------------------------------------------
 -                                                                             -
 -                           R E F E R E N C E S                               -
 -                                                                             -
 -------------------------------------------------------------------------------
 
 CP2K version 7.1, the CP2K developers group (2019).
 CP2K is freely available from https://www.cp2k.org/ .

 Schuett, Ole; Messmer, Peter; Hutter, Juerg; VandeVondele, Joost. 
 Electronic Structure Calculations on Graphics Processing Units, John
 Wiley & Sons, Ltd, 173-190 (2016). 
 GPU-Accelerated Sparse Matrix-Matrix Multiplication for
 Linear Scaling Density Functional Theory.
 https://dx.doi.org/10.1002/9781118670712.ch8

 Borstnik, U; VandeVondele, J; Weber, V; Hutter, J. 
 PARALLEL COMPUTING, 40 (5-6), 47-58 (2014). 
 Sparse matrix multiplication: The distributed block-compressed sparse
 row library.
 https://dx.doi.org/10.1016/j.parco.2014.03.012

 Hutter, J; Iannuzzi, M; Schiffmann, F; VandeVondele, J. 
 WIREs Comput Mol Sci., 4 (1), 15-25 (2014). 
 CP2K: atomistic simulations of condensed matter systems.
 https://dx.doi.org/10.1002/wcms.1159

 Marek, A; Blum, V; Johanni, R; Havu, V; Lang, B; Auckenthaler, T;
 Heinecke, A; Bungartz, H; Lederer, H. 
 Journal of Physics: Condensed Matter, 26 (21), (2014). 
 The ELPA library: scalable parallel eigenvalue solutions for
 electronic structure
 theory and computational science.
 https://dx.doi.org/10.1088/0953-8984/26/21/213201

 VandeVondele, J; Hutter, J. 
 JOURNAL OF CHEMICAL PHYSICS, 127 (11), 114105 (2007). 
 Gaussian basis sets for accurate calculations on molecular systems in
 gas and condensed phases.
 https://dx.doi.org/10.1063/1.2770708

 Krack, M. 
 THEORETICAL CHEMISTRY ACCOUNTS, 114 (1-3), 145-152 (2005). 
 Pseudopotentials for H to Kr optimized for gradient-corrected
 exchange-correlation functionals.
 https://dx.doi.org/10.1007/s00214-005-0655-y

 Frigo, M; Johnson, SG. 
 PROCEEDINGS OF THE IEEE, 93 (2), 216-231 (2005). 
 The design and implementation of FFTW3.
 https://dx.doi.org/10.1109/JPROC.2004.840301

 Lippert, G; Hutter, J; Parrinello, M. 
 THEORETICAL CHEMISTRY ACCOUNTS, 103 (2), 124-140 (1999). 
 The Gaussian and augmented-plane-wave density functional method for ab
 initio molecular dynamics simulations.
 https://dx.doi.org/10.1007/s002140050523

 Krack, M; Parrinello, M. 
 PHYSICAL CHEMISTRY CHEMICAL PHYSICS, 2 (10), 2105-2112 (2000). 
 All-electron ab-initio molecular dynamics.
 https://dx.doi.org/10.1039/b001167n

 Hartwigsen, C; Goedecker, S; Hutter, J. 
 PHYSICAL REVIEW B, 58 (7), 3641-3662 (1998). 
 Relativistic separable dual-space Gaussian pseudopotentials from H to Rn.
 https://dx.doi.org/10.1103/PhysRevB.58.3641

 Perdew, JP; Burke, K; Ernzerhof, M. 
 PHYSICAL REVIEW LETTERS, 77 (18), 3865-3868 (1996). 
 Generalized gradient approximation made simple.
 https://dx.doi.org/10.1103/PhysRevLett.77.3865

 Goedecker, S; Teter, M; Hutter, J. 
 PHYSICAL REVIEW B, 54 (3), 1703-1710 (1996). 
 Separable dual-space Gaussian pseudopotentials.
 https://dx.doi.org/10.1103/PhysRevB.54.1703


 -------------------------------------------------------------------------------
 -                                                                             -
 -                                T I M I N G                                  -
 -                                                                             -
 -------------------------------------------------------------------------------
 SUBROUTINE                       CALLS  ASD         SELF TIME        TOTAL TIME
                                MAXIMUM       AVERAGE  MAXIMUM  AVERAGE  MAXIMUM
 CP2K                                 1  1.0    0.020    0.026   71.430   71.432
 qs_energies                          1  2.0    0.003    0.003   71.120   71.121
 scf_env_do_scf                       1  3.0    0.000    0.000   69.213   69.218
 scf_env_do_scf_inner_loop           38  4.0    0.003    0.004   69.213   69.218
 qs_ks_update_qs_env                 39  5.0    0.000    0.000   40.234   40.683
 rebuild_ks_matrix                   39  6.0    0.000    0.000   40.225   40.674
 qs_ks_build_kohn_sham_matrix        39  7.0    0.007    0.010   40.225   40.674
 rs_pw_transfer                     547  9.5    0.005    0.006   28.555   32.252
 mp_waitall_1                     24069 11.5   14.234   18.684   14.234   18.684
 qs_rho_update_rho                   39  5.0    0.000    0.000   18.260   18.264
 calculate_rho_elec                  39  6.0    5.325    8.542   18.255   18.259
 sum_up_and_integrate                39  8.0    0.037    0.041   14.394   17.795
 integrate_v_rspace                  39  9.0    5.554    8.955   14.357   17.755
 rs_pw_transfer_PW2RS_250            78 11.0    7.300    7.734   13.850   15.931
 rs_pw_transfer_RS2PW_250            79 10.0    4.811    4.881   12.582   14.436
 density_rs2pw                       39  7.0    0.002    0.003   11.299   13.098
 integrate_vhg0_rspace               39  8.0    0.020    0.035    8.773   10.773
 potential_pw2rs                     39 10.0    0.005    0.006    8.797    8.799
 qs_scf_loop_print                   38  5.0    0.223    7.556    7.994    8.635
 pw_transfer                        740  9.2    0.042    0.048    8.376    8.577
 fft_wrap_pw1pw2                    623 10.1    0.005    0.005    8.121    8.322
 prepare_gapw_den                    39  8.0    0.000    0.001    7.868    7.901
 put_rho0_on_grid                    39  9.0    0.059    0.067    7.865    7.898
 fft_wrap_pw1pw2_250                233 10.5    0.691    0.716    7.614    7.838
 qs_vxc_create                       39  8.0    0.000    0.000    6.973    6.974
 xc_vxc_pw_create                    39  9.0    0.131    0.151    6.973    6.973
 fft3d_ps                           623 12.1    3.992    4.351    6.087    6.321
 mp_sync                             45  6.1    5.884    6.037    5.884    6.037
 xc_rho_set_and_dset_create          39 10.0    0.085    0.088    5.219    5.834
 xc_functional_eval                  39 11.0    0.000    0.000    3.955    4.552
 pbe_lda_eval                        39 12.0    3.955    4.552    3.955    4.552
 rs_grid_zero                       313  7.6    3.769    3.894    3.769    3.894
 pw_nn_compose_r                    312 10.5    1.696    1.784    2.466    2.925
 mp_sum_dm                           39  6.0    2.029    2.717    2.029    2.717
 gspace_mixing                       37  5.0    0.055    0.061    2.666    2.667
 mp_isendrecv_dv                  21333 11.5    1.307    2.308    1.307    2.308
 mp_alltoall_z22v                   623 14.1    1.246    1.436    1.246    1.436
 -------------------------------------------------------------------------------

 The number of warnings for this run is : 2
 
 -------------------------------------------------------------------------------
  **** **** ******  **  PROGRAM ENDED AT                 2022-12-15 19:27:11.042
 ***** ** ***  *** **   PROGRAM RAN ON                             node-c12a-002
 **    ****   ******    PROGRAM RAN BY                                   mmm0666
 ***** **    ** ** **   PROGRAM PROCESS ID                                 19411
  **** **  *******  **  PROGRAM STOPPED IN /lustre/home/mmm0666/cp2k_ksprint/he_
                                           grid_z_6/He3
